file 6315503 1715295829                                         
version 3
run General-0-20240509-20:01:18-22606
attr configname General
attr datetime 20240509-20:01:18
attr datetimef 20240509-200118
attr experiment General
attr inifile omnetpp.ini
attr iterationvars ""
attr iterationvarsd ""
attr iterationvarsf ""
attr measurement ""
attr network Network
attr processid 22606
attr repetition 0
attr replication #0
attr resultdir results
attr runnumber 0
attr seedset 0
config network Network
config sim-time-limit 200s
config Network.queue.serviceTime exponential(0.001)
config Network.queue.bufferSize 200
config Network.nodeRx.queue.bufferSize 200
config Network.nodeRx.queue.serviceTime exponential(0.001)
config Network.nodeTx.gen.packetByteSize 12500
config Network.nodeTx.queue.bufferSize 2000000
config Network.nodeTx.queue.serviceTime exponential(0.001)
config Network.nodeTx.gen.generationInterval exponential(0.001)

vector 0 Network.nodeTx.queue "" ETV
vector 1 Network.queue "" ETV
vector 2 Network.nodeRx.queue "" ETV
vector 3 Network.nodeRx.sink Delay ETV
0	1008 953351 2 66316 0.000795874505 32.446871766213 32768 1 32681 534040308 11635490321828
0	954359 995362 66318 131852 32.449038244849 65.243296525733 32768 32682 65449 1607778304 81818477379584
0	1949721 1012118 131854 197388 65.243399335722 97.695397622912 32768 65450 98217 2681520128 2.2237020839936e+14
0	2961839 1073643 197390 262924 97.69644383618 130.325698248457 32768 98218 130985 3755261952 4.332906835968e+14
0	4035482 1077585 262926 328460 130.325844007438 163.164898312008 32768 130986 163753 4829003776 7.145799029719e+14
0	5113067 1077680 328462 393996 163.16587145699 196.33142768474 32768 163754 196521 5902745600 1.0662378665247e+15
0	6190747 118379 393998 401194 196.33178271501 199.999423195327 3599 196522 200120 713757279 1.4155694208916e+14
1	6309126 1980 5 946 0.000895874505 0.088889079249 87 1 1 87 87
2	6311106 1980 8 952 0.000995874505 0.088989079249 87 1 1 87 87
3	6313086 2416 10 954 0.000995874505 0.088989079249 87 0.0002 0.0002 0.0174 3.48e-06

