version 3
run General-0-20240516-22:49:53-38951
attr configname General
attr datetime 20240516-22:49:53
attr datetimef 20240516-224953
attr experiment General
attr inifile omnetpp.ini
attr iterationvars ""
attr iterationvarsd ""
attr iterationvarsf ""
attr measurement ""
attr network Network
attr processid 38951
attr repetition 0
attr replication #0
attr resultdir results
attr runnumber 0
attr seedset 0
config network Network
config sim-time-limit 200s
config Network.queue.serviceTime exponential(0.001)
config Network.queue.bufferSize 200
config Network.nodeRx.queue.bufferSize 200
config Network.nodeRx.queue.serviceTime exponential(0.001)
config Network.nodeTx.gen.packetByteSize 12500
config Network.nodeTx.gen.generationInterval exponential(0.2)
config Network.nodeTx.queue.bufferSize 2000000
config Network.nodeTx.queue.serviceTime exponential(0.001)

vector 0 Network.nodeTx.gen packetGen ETV
vector 1 Network.nodeTx.queue packetsDrop ETV
vector 2 Network.queue packetsDrop ETV
vector 3 Network.nodeRx.queue packetsDrop ETV
vector 4 Network.nodeTx.queue bufferSizeQueue ETV
vector 5 Network.queue bufferSizeQueue ETV
vector 6 Network.nodeRx.queue bufferSizeQueue ETV
vector 7 Network.nodeRx.sink Delay ETV
vector 8 Network.nodeRx.sink PacketUsed ETV
0	0	0	0
0	1	0.159174900913	1
0	7	0.33888697861	2
0	17	0.590073130219	3
0	31	0.961993972634	4
0	39	1.146638598928	5
0	52	1.536947666105	6
0	60	1.694387894101	7
0	73	2.070180704942	8
0	81	2.180390402276	9
0	89	2.375791687555	10
0	99	2.583423547688	11
0	104	2.680449180432	12
0	113	2.795553019809	13
0	116	2.866184847637	14
0	134	3.310889732044	15
0	137	3.322566665863	16
0	161	3.985549121849	17
0	164	4.049220350017	18
0	171	4.145940771007	19
0	175	4.275830040657	20
0	191	4.589609264182	21
0	204	4.924051504247	22
0	211	5.07458632691	23
0	221	5.205362840354	24
0	229	5.373249410934	25
0	234	5.473023812737	26
0	255	5.992674629907	27
0	269	6.354348482762	28
0	272	6.369085553855	29
0	276	6.451401153104	30
0	281	6.469633358329	31
0	290	6.678555859991	32
0	292	6.682640977671	33
0	298	6.774490605122	34
0	314	7.13198813781	35
0	336	7.762022123545	36
0	349	8.063178975272	37
0	352	8.093425146005	38
0	368	8.501487997593	39
0	383	8.909666440775	40
0	396	9.678710814603	41
0	402	9.807052649139	42
0	412	10.128100560551	43
0	426	10.45090097553	44
0	434	10.574686867455	45
0	439	10.721679751693	46
0	452	11.024986946491	47
0	464	11.252174734833	48
0	467	11.277349616721	49
0	479	11.532395157166	50
0	489	11.736681532036	51
0	499	11.911145771044	52
0	502	11.942091707144	53
0	511	12.096258638837	54
0	532	12.675142734434	55
0	543	12.959415670453	56
0	554	13.106981128804	57
0	557	13.129370360931	58
0	561	13.236483504977	59
0	570	13.364822445383	60
0	574	13.426278515814	61
0	579	13.46751917222	62
0	594	13.76517013737	63
0	604	14.032228174295	64
0	612	14.154044658932	65
0	617	14.202854357079	66
0	628	14.370921298201	67
0	631	14.399976903659	68
0	633	14.403770617499	69
0	640	14.482124779634	70
0	651	14.674400967447	71
0	653	14.706828265336	72
0	664	14.896227600771	73
0	666	14.946515987186	74
0	677	15.13842558266	75
0	683	15.236136992522	76
0	704	15.811719996778	77
0	722	16.277502671621	78
0	732	16.506530462561	79
0	739	16.626079677925	80
0	745	16.715183376935	81
0	756	16.905082293634	82
0	763	17.019988774982	83
0	781	17.485258987321	84
0	791	17.724480547212	85
0	794	17.745392792367	86
0	796	17.75781585046	87
0	821	18.457858587351	88
0	834	18.677641080861	89
0	844	18.889407907159	90
0	854	19.111527396296	91
0	857	19.1490126095	92
0	861	19.196253950717	93
0	868	19.284934756441	94
0	872	19.312540494127	95
0	885	19.590349032085	96
0	892	19.666141424942	97
0	900	19.853353736896	98
0	906	19.943774148941	99
0	912	20.022396660402	100
0	923	20.191282219108	101
0	926	20.199118850391	102
0	933	20.314583712552	103
0	944	20.515757913585	104
0	971	21.40665728282	105
0	991	22.045246611231	106
0	997	22.066773632862	107
0	1008	22.278338915532	108
0	1011	22.325199219287	109
0	1022	22.526803068371	110
0	1027	22.561985777456	111
0	1058	23.634005847505	112
0	1068	23.845754390524	113
0	1078	24.020137561249	114
0	1084	24.078553667902	115
0	1090	24.185566603319	116
0	1097	24.311154919517	117
0	1105	24.439911119838	118
0	1111	24.495966521534	119
0	1122	24.691339336348	120
0	1125	24.725964827577	121
0	1131	24.808465073561	122
0	1133	24.831856155519	123
0	1144	25.056489815826	124
0	1158	25.270104255256	125
0	1161	25.346415423931	126
0	1167	25.376157877781	127
0	1181	25.677484944436	128
0	1184	25.721261063737	129
0	1205	26.318699042107	130
0	1210	26.410701833655	131
0	1221	26.627955709831	132
0	1236	26.972022041374	133
0	1239	26.97475495706	134
0	1241	26.995183933365	135
0	1252	27.190204320196	136
0	1266	27.554168104053	137
0	1278	27.778130977204	138
0	1281	27.798337932266	139
0	1305	28.513055606735	140
0	1330	29.262861898652	141
0	1345	29.68392615881	142
0	1352	29.810393478089	143
0	1360	29.952910196756	144
0	1385	30.705295653657	145
0	1388	30.716761038942	146
0	1397	30.902456738322	147
0	1405	31.02244611565	148
0	1418	31.29129517008	149
0	1421	31.295333195709	150
0	1423	31.303328455521	151
0	1429	31.419904133294	152
0	1434	31.486386181487	153
0	1464	32.264700206056	154
0	1467	32.290311559118	155
0	1473	32.379395451502	156
0	1475	32.449630669378	157
0	1486	32.580759926251	158
0	1488	32.606037653536	159
0	1499	32.839412358846	160
0	1506	32.915952548618	161
0	1522	33.340799988018	162
0	1529	33.447776863169	163
0	1547	33.948559219786	164
0	1552	33.961818700082	165
0	1554	34.010697789698	166
0	1565	34.246535695111	167
0	1576	34.413104398324	168
0	1586	34.580323904718	169
0	1601	34.980972009219	170
0	1604	35.042654977239	171
0	1615	35.184904564682	172
0	1623	35.333056354771	173
0	1640	35.830172826166	174
0	1643	35.84990288785	175
0	1662	36.357963789442	176
0	1672	36.529542917657	177
0	1675	36.546897014125	178
0	1696	37.07674819986	179
0	1699	37.141816282966	180
0	1705	37.218528325786	181
0	1707	37.220408475919	182
0	1718	37.440577657937	183
0	1734	37.810043188137	184
0	1737	37.838309330849	185
0	1748	38.046665461685	186
0	1761	38.298652223707	187
0	1776	38.666908718004	188
0	1779	38.735239551409	189
0	1785	38.796743096161	190
0	1787	38.837213183874	191
0	1794	38.938653208525	192
0	1805	39.115279016917	193
0	1816	39.276238496877	194
0	1819	39.280300988636	195
0	1821	39.316351439033	196
0	1839	39.669499653516	197
0	1844	39.761845832725	198
0	1846	39.762787140823	199
0	1850	39.794455442069	200
0	1861	40.020982270463	201
0	1872	40.189598876893	202
0	1875	40.252543209064	203
0	1889	40.495844939751	204
0	1901	40.761596514501	205
0	1904	40.829665862148	206
0	1928	41.484694497691	207
0	1935	41.598275328387	208
0	1938	41.655479522889	209
0	1952	41.937684404748	210
0	1962	42.109362998314	211
0	1969	42.210231759632	212
0	1979	42.389549933789	213
0	1994	42.842296648961	214
0	2004	43.012140811274	215
0	2014	43.215872557278	216
0	2020	43.266356555856	217
0	2036	43.710657935551	218
0	2056	44.321114266928	219
0	2066	44.549035859635	220
0	2076	44.667560665125	221
0	2083	44.786836543991	222
0	2098	45.161528519962	223
0	2121	45.930129836611	224
0	2133	46.17057755006	225
0	2136	46.195282879532	226
0	2141	46.265886906187	227
0	2154	46.5572506179	228
0	2169	46.893435058809	229
0	2176	46.999579558132	230
0	2184	47.100583307683	231
0	2194	47.325639711052	232
0	2209	47.751539590266	233
0	2214	47.80902168548	234
0	2225	47.983128850745	235
0	2228	48.058276619226	236
0	2247	48.485242709223	237
0	2267	49.158116799833	238
0	2279	49.393993386562	239
0	2289	49.571565668649	240
0	2299	49.829947522409	241
0	2309	50.045514499236	242
0	2319	50.184674391416	243
0	2327	50.337047945675	244
0	2349	50.962141617207	245
0	2352	51.014553065542	246
0	2359	51.221112467671	247
0	2367	51.321574627323	248
0	2374	51.43185382535	249
0	2384	51.624744538449	250
0	2394	51.81122511453	251
0	2402	51.940046056195	252
0	2405	51.943922012465	253
0	2414	52.070947555591	254
0	2418	52.142732998765	255
0	2431	52.394541702218	256
0	2441	52.610405741949	257
0	2447	52.678338688465	258
0	2451	52.746858613405	259
0	2457	52.843585750723	260
0	2468	53.036060761877	261
0	2481	53.312656603184	262
0	2488	53.424648817199	263
0	2503	53.846138338189	264
0	2509	53.875253133879	265
0	2511	53.896962553578	266
0	2517	53.967807380027	267
0	2519	53.987191930942	268
0	2528	54.15596962546	269
0	2532	54.243375228215	270
0	2543	54.422121043876	271
0	2554	54.582631441028	272
0	2563	54.753447388157	273
0	2566	54.760288071829	274
0	2579	54.972089948905	275
0	2602	55.666597044761	276
0	2612	55.877766966493	277
0	2615	55.955192984923	278
0	2624	56.068115085147	279
0	2628	56.118131384143	280
0	2646	56.571858182681	281
0	2649	56.602316907732	282
0	2656	56.693951484524	283
0	2658	56.714415607495	284
0	2664	56.828907917781	285
0	2692	57.656469869883	286
0	2710	58.101452801328	287
0	2713	58.161765983973	288
0	2729	58.489945499558	289
0	2736	58.643960871467	290
0	2749	58.887364770534	291
0	2756	59.006179470199	292
0	2759	59.027301998925	293
0	2761	59.048278366045	294
0	2782	59.552134792062	295
0	2787	59.639003923251	296
0	2801	59.889525428233	297
0	2808	60.016217951778	298
0	2848	61.369296055765	299
0	2861	61.73724261278	300
0	2866	61.769616630122	301
0	2882	62.239652088072	302
0	2897	62.644833851493	303
0	2900	62.65249043407	304
0	2905	62.687955549099	305
0	2912	62.829939134544	306
0	2921	63.021132419328	307
0	2927	63.057640139705	308
0	2929	63.084076881628	309
0	2945	63.38604157275	310
0	2960	63.762827350067	311
0	2975	64.163224649172	312
0	2987	64.492568469437	313
0	2995	64.598569045064	314
0	3005	64.76694523741	315
0	3008	64.797103439449	316
0	3014	64.901677445467	317
0	3016	64.908434802577	318
0	3018	64.92276987944	319
0	3048	65.732739247201	320
0	3061	65.971826960457	321
0	3066	66.065281473739	322
0	3075	66.186141288109	323
0	3082	66.295112713738	324
0	3095	66.5511795545	325
0	3098	66.561562064937	326
0	3114	66.964116612178	327
0	3119	67.055098981136	328
0	3143	67.797091099517	329
0	3146	67.800444652715	330
0	3162	68.187760100213	331
0	3165	68.240225962046	332
0	3167	68.24258260843	333
0	3182	68.532141424828	334
0	3188	68.621391988932	335
0	3209	69.198314339352	336
0	3221	69.460174012157	337
0	3232	69.737432282561	338
0	3238	69.775091277605	339
0	3243	69.858013786137	340
0	3249	70.005240006134	341
0	3260	70.139732109501	342
0	3263	70.150906120079	343
0	3265	70.233701904614	344
0	3272	70.278329746234	345
0	3274	70.317895647726	346
0	3276	70.32163474181	347
0	3282	70.359138532051	348
0	3298	70.674821076472	349
0	3304	70.799340545268	350
0	3311	70.850041686297	351
0	3329	71.265247898386	352
0	3334	71.349979318657	353
0	3353	71.926888176338	354
0	3373	72.453331948848	355
0	3383	72.640759692393	356
0	3393	72.884519053062	357
0	3403	73.066111858527	358
0	3406	73.072583219456	359
0	3419	73.378749464709	360
0	3422	73.414740933019	361
0	3431	73.553380886927	362
0	3442	73.747677318546	363
0	3445	73.758013899705	364
0	3452	73.930198627041	365
0	3465	74.170392808349	366
0	3468	74.224726422417	367
0	3499	75.200553000016	368
0	3519	75.744822651199	369
0	3522	75.807016212193	370
0	3533	75.997382153701	371
0	3543	76.224701452752	372
0	3553	76.378117383666	373
0	3568	76.777551777164	374
0	3578	76.955827492546	375
0	3588	77.233762905301	376
0	3601	77.495719979573	377
0	3618	78.163306846344	378
0	3621	78.238084145525	379
0	3628	78.399680156205	380
0	3636	78.501253180742	381
0	3639	78.549003755312	382
0	3643	78.596108669996	383
0	3647	78.646428392619	384
0	3652	78.687634802316	385
0	3656	78.737006656076	386
0	3681	79.314821774456	387
0	3691	79.483417529539	388
0	3701	79.752487016186	389
0	3711	79.872822813491	390
0	3718	80.007671727418	391
0	3741	80.710567463525	392
0	3744	80.762170016313	393
0	3757	80.990397596885	394
0	3760	81.04909912727	395
0	3765	81.066929985269	396
0	3767	81.078886177852	397
0	3771	81.090500650275	398
0	3777	81.204480163336	399
0	3784	81.338302908074	400
0	3790	81.413036866953	401
0	3810	81.838770885859	402
0	3823	82.07714250659	403
0	3845	82.826481429355	404
0	3851	82.921364687422	405
0	3862	83.113652601736	406
0	3865	83.153246148803	407
0	3874	83.309641292978	408
0	3878	83.314638963641	409
0	3894	83.700310991017	410
0	3897	83.714234525232	411
0	3910	83.986620870093	412
0	3920	84.214128571201	413
0	3928	84.344374717585	414
0	3938	84.465290961252	415
0	3948	84.691362070434	416
0	3955	84.845186030653	417
0	3965	85.031998097174	418
0	3983	85.485966100331	419
0	3993	85.736806754349	420
0	4023	86.664737259624	421
0	4030	86.791523263503	422
0	4033	86.840421467912	423
0	4040	86.962188050659	424
0	4053	87.179768937382	425
0	4068	87.653552571549	426
0	4074	87.714673551912	427
0	4076	87.74419275849	428
0	4078	87.748366202212	429
0	4084	87.800436484521	430
0	4100	88.084513175638	431
0	4116	88.511225833133	432
0	4121	88.588363371942	433
0	4137	89.057932124228	434
0	4143	89.154659801726	435
0	4154	89.362229816824	436
0	4164	89.539730202521	437
0	4169	89.618244808159	438
0	4185	89.973873475526	439
0	4193	90.12054701016	440
0	4203	90.318847868739	441
0	4206	90.318858939118	442
0	4222	90.731023187294	443
0	4227	90.805775846057	444
0	4234	90.869690777032	445
0	4240	90.980524942842	446
0	4254	91.30046883121	447
0	4269	91.733621567385	448
0	4274	91.774691121132	449
0	4285	92.002502651267	450
0	4305	92.613139585186	451
0	4313	92.734948507728	452
0	4325	92.967571164413	453
0	4333	93.099671780363	454
0	4336	93.148215479097	455
0	4349	93.459148066659	456
0	4369	94.048044122144	457
0	4375	94.100172148019	458
0	4387	94.362673746612	459
0	4402	94.7872230774	460
0	4405	94.845813369097	461
0	4412	94.921099239401	462
0	4414	94.969083943288	463
0	4437	95.600503051571	464
0	4446	95.746548584619	465
0	4453	95.874186305738	466
0	4456	95.879385854777	467
0	4470	96.128056010367	468
0	4473	96.174561014044	469
0	4477	96.207935942291	470
0	4484	96.318503616421	471
0	4497	96.580698090053	472
0	4502	96.674433385248	473
0	4513	96.882274512564	474
0	4523	97.006840374517	475
0	4526	97.055224303471	476
0	4533	97.120267507066	477
0	4535	97.161539105787	478
0	4546	97.338296236994	479
0	4559	97.667911471626	480
0	4574	98.066719311881	481
0	4587	98.341655302641	482
0	4590	98.366661820626	483
0	4601	98.591353920536	484
0	4611	98.737058689083	485
0	4616	98.80189851178	486
0	4618	98.830226918739	487
0	4622	98.868679206907	488
0	4636	99.121041741604	489
0	4647	99.36484161064	490
0	4654	99.46569759729	491
0	4662	99.590104981106	492
0	4672	99.756780629235	493
0	4687	100.123833309823	494
0	4690	100.164325062563	495
0	4694	100.210173927604	496
0	4698	100.241469081681	497
0	4700	100.277523941597	498
0	4709	100.411432059769	499
0	4713	100.438100184424	500
0	4720	100.525991262523	501
0	4731	100.782076133319	502
0	4754	101.346203323002	503
0	4757	101.352388581314	504
0	4770	101.6422995366	505
0	4783	101.917168139484	506
0	4793	102.193360758617	507
0	4798	102.21279429429	508
0	4814	102.680892686421	509
0	4820	102.729932304949	510
0	4822	102.747354021601	511
0	4837	103.024017314831	512
0	4845	103.184695667364	513
0	4857	103.447820919023	514
0	4867	103.623463934767	515
0	4870	103.632801483496	516
0	4891	104.286500763661	517
0	4897	104.333431933512	518
0	4903	104.402535850254	519
0	4905	104.470166793223	520
0	4912	104.525272380631	521
0	4923	104.751456076469	522
0	4925	104.77259351129	523
0	4927	104.785616084247	524
0	4931	104.788929303131	525
0	4940	104.951157507577	526
0	4962	105.481669210681	527
0	4965	105.483525815557	528
0	4979	105.7052077664	529
0	4991	106.063205687296	530
0	5004	106.370771430191	531
0	5031	107.201965649304	532
0	5034	107.268147625539	533
0	5048	107.511285720211	534
0	5055	107.687861829202	535
0	5061	107.727950268219	536
0	5063	107.741168670358	537
0	5069	107.88481796638	538
0	5080	108.01777951629	539
0	5089	108.191492662583	540
0	5114	108.950297419201	541
0	5126	109.260099755032	542
0	5141	109.678411069557	543
0	5151	109.864933440611	544
0	5157	109.947479413956	545
0	5161	109.996762578399	546
0	5184	110.648546773836	547
0	5192	110.77000263156	548
0	5197	110.822718054127	549
0	5213	111.244895809004	550
0	5233	111.841335944099	551
0	5241	111.97689634451	552
0	5261	112.544224383185	553
0	5271	112.795671782299	554
0	5286	113.116763534913	555
0	5293	113.24993203224	556
0	5303	113.449024760913	557
0	5313	113.695600853519	558
0	5331	114.110353146139	559
0	5338	114.248240053709	560
0	5344	114.317590714467	561
0	5357	114.689877043063	562
0	5372	115.067897382682	563
0	5378	115.111116626001	564
0	5389	115.303519011319	565
0	5399	115.600367507849	566
0	5404	115.603032556815	567
0	5428	116.334964022968	568
0	5433	116.420271185375	569
0	5449	116.816820966296	570
0	5452	116.848887785193	571
0	5467	117.152101571158	572
0	5484	117.953691502133	573
0	5495	118.794063387383	574
0	5501	118.924222855855	575
0	5511	119.204357995247	576
0	5520	119.341946690939	577
0	5523	119.342757955203	578
0	5534	119.546795372794	579
0	5539	119.609594952407	580
0	5543	119.701553215962	581
0	5552	119.807246661622	582
0	5554	119.836691669085	583
0	5563	119.948493203083	584
0	5576	120.293819879031	585
0	5582	120.364539194084	586
0	5588	120.406645851725	587
0	5595	120.509188780251	588
0	5601	120.65239784385	589
0	5603	120.678113891305	590
0	5610	120.728916166975	591
0	5638	121.518442820487	592
0	5641	121.539036493231	593
0	5647	121.643252257448	594
0	5663	122.03963032567	595
0	5673	122.208057586237	596
0	5696	122.929845787234	597
0	5701	123.014044446844	598
0	5722	123.662037040224	599
0	5735	123.973095912295	600
0	5752	124.447173428418	601
0	5758	124.553165744272	602
0	5768	124.85065169514	603
0	5771	124.939681563021	604
0	5779	125.020718139489	605
0	5785	125.122716306259	606
0	5787	125.139632204611	607
0	5794	125.211490985636	608
0	5800	125.316084516367	609
0	5816	125.614610949205	610
0	5821	125.667465042032	611
0	5840	126.188779402496	612
0	5843	126.217204504775	613
0	5849	126.295904987	614
0	5851	126.30688646151	615
0	5874	126.917858417311	616
0	5887	127.17648798907	617
0	5890	127.179297307318	618
0	5892	127.18159595736	619
0	5898	127.334080694203	620
0	5914	127.628521525802	621
0	5919	127.701169969582	622
0	5923	127.732956605513	623
0	5942	128.161833698416	624
0	5945	128.178406153	625
0	5947	128.23610869507	626
0	5951	128.254883604527	627
0	5964	128.481159358048	628
0	5975	128.704136842429	629
0	5988	129.036729998564	630
0	5993	129.093034803058	631
0	6000	129.206213711385	632
0	6006	129.315345254338	633
0	6020	129.594319072591	634
0	6030	129.75732273877	635
0	6042	130.111246703412	636
0	6057	130.50525821653	637
0	6063	130.60055393305	638
0	6076	130.860243060171	639
0	6079	130.880549876959	640
0	6081	130.943581882702	641
0	6088	131.002762257352	642
0	6090	131.030955834235	643
0	6101	131.210221675239	644
0	6103	131.221614981732	645
0	6112	131.351049922541	646
0	6116	131.422842186216	647
0	6125	131.556702760613	648
0	6129	131.617497072459	649
0	6135	131.740184890377	650
0	6146	131.861997781442	651
0	6153	132.010714419797	652
0	6164	132.240662697347	653
0	6173	132.357347451554	654
0	6184	132.595246701821	655
0	6199	132.97821515335	656
0	6202	133.044895821025	657
0	6211	133.158529917773	658
0	6217	133.254113515275	659
0	6231	133.60485644428	660
0	6234	133.644827551864	661
0	6243	133.787229164989	662
0	6256	134.097978265395	663
0	6259	134.116045714211	664
0	6261	134.127751294	665
0	6272	134.3435366757	666
0	6286	134.582339349819	667
0	6289	134.62862354421	668
0	6302	134.930266590535	669
0	6317	135.306090277377	670
0	6330	135.606572836119	671
0	6340	135.835310960236	672
0	6345	135.895375976293	673
0	6347	135.934668353472	674
0	6354	136.028289644119	675
0	6358	136.042773466142	676
0	6367	136.219925595348	677
0	6369	136.221872677216	678
0	6375	136.285589446792	679
0	6395	136.73080624468	680
0	6401	136.823484250188	681
0	6407	136.852134854464	682
0	6409	136.896028486643	683
0	6425	137.198120806888	684
0	6432	137.321304663645	685
0	6450	137.839794385402	686
0	6453	137.848921995301	687
0	6466	138.100100692169	688
0	6479	138.421784261986	689
0	6489	138.556774456717	690
0	6492	138.572790227906	691
0	6498	138.699576653204	692
0	6505	138.845885721031	693
0	6523	139.274505661117	694
0	6526	139.347795919484	695
0	6537	139.481842294799	696
0	6547	139.654175793158	697
0	6555	139.761256663377	698
0	6575	140.402218429299	699
0	6578	140.440477638479	700
0	6589	140.6479266573	701
0	6599	140.776908355533	702
0	6602	140.784108921483	703
0	6615	141.090278605272	704
0	6623	141.202843645635	705
0	6633	141.365423317872	706
0	6640	141.508100174432	707
0	6643	141.542939206507	708
0	6652	141.69658987488	709
0	6656	141.727646991981	710
0	6670	141.956406067805	711
0	6680	142.166063888796	712
0	6683	142.231098062894	713
0	6694	142.386066538795	714
0	6697	142.413657185181	715
0	6703	142.49246869957	716
0	6710	142.592207166144	717
0	6712	142.624009569504	718
0	6735	143.250575467413	719
0	6740	143.28541521073	720
0	6742	143.32685224718	721
0	6749	143.354569611465	722
0	6767	143.823217597484	723
0	6777	143.99620521937	724
0	6787	144.153172623288	725
0	6790	144.17253211775	726
0	6796	144.29462868675	727
0	6815	144.777431972852	728
0	6830	145.204916310935	729
0	6833	145.222239709824	730
0	6839	145.344960551772	731
0	6855	145.667226951596	732
0	6865	145.924819346611	733
0	6880	146.344146601316	734
0	6888	146.445987098689	735
0	6893	146.465611003215	736
0	6909	146.934384931375	737
0	6917	147.045516714007	738
0	6929	147.279769452996	739
0	6937	147.407964162049	740
0	6947	147.648506918815	741
0	6957	147.822100915219	742
0	6962	147.901517105223	743
0	6976	148.153445339348	744
0	6986	148.436202005256	745
0	6989	148.441690425342	746
0	7000	148.643844257962	747
0	7012	148.906748677579	748
0	7018	148.96164138198	749
0	7031	149.252953424295	750
0	7034	149.287952433939	751
0	7036	149.289915321219	752
0	7052	149.608226545778	753
0	7057	149.6819431337	754
0	7078	150.321594129054	755
0	7084	150.374612749335	756
0	7090	150.497161838308	757
0	7099	150.637166965531	758
0	7109	150.815967246067	759
0	7129	151.430582290624	760
0	7144	151.820577672993	761
0	7154	151.983781385786	762
0	7161	152.105992898043	763
0	7164	152.126503276644	764
0	7185	152.733291791124	765
0	7195	152.927693969336	766
0	7205	153.099180989859	767
0	7220	153.496768880828	768
0	7233	153.840582743186	769
0	7238	153.874890468661	770
0	7257	154.353926426539	771
0	7284	155.330626224608	772
0	7299	155.66867321556	773
0	7302	155.686439692091	774
0	7304	155.721171004733	775
0	7306	155.74101531003	776
0	7317	155.939271211182	777
0	7328	156.140081445958	778
0	7335	156.241725336769	779
0	7356	156.838081268234	780
0	7361	156.851034406792	781
0	7380	157.403155297929	782
0	7387	157.513496020447	783
0	7395	157.632112339912	784
0	7400	157.691978016396	785
0	7414	157.952145501888	786
0	7426	158.330291332774	787
0	7439	158.601435035544	788
0	7442	158.608209406592	789
0	7446	158.681550437351	790
0	7469	159.320302811887	791
0	7472	159.345817526646	792
0	7479	159.433632923764	793
0	7488	159.5509866851	794
0	7492	159.639217647246	795
0	7498	159.738659504515	796
0	7500	159.741952161312	797
0	7509	159.893745116162	798
0	7513	159.934715569591	799
0	7531	160.308043663627	800
0	7539	160.410629061993	801
0	7549	160.564321577471	802
0	7566	161.094159229917	803
0	7576	161.322215005301	804
0	7579	161.343201554767	805
0	7590	161.53110195194	806
0	7610	162.112285872671	807
0	7613	162.133020039999	808
0	7629	162.540278877453	809
0	7635	162.559587133259	810
0	7641	162.680673889587	811
0	7643	162.69219247295	812
0	7650	162.771305593029	813
0	7652	162.789407087059	814
0	7656	162.842394074586	815
0	7660	162.896538952733	816
0	7671	163.087163460386	817
0	7691	163.453071891558	818
0	7694	163.459798675742	819
0	7701	163.60758267973	820
0	7703	163.610728504485	821
0	7714	163.754657484023	822
0	7720	163.866659158689	823
0	7731	164.076527591874	824
0	7734	164.090627981546	825
0	7741	164.247939799924	826
0	7747	164.305994482949	827
0	7749	164.31259527996	828
0	7754	164.36258544329	829
0	7762	164.536157817268	830
0	7769	164.594547031614	831
0	7784	164.889431476571	832
0	7787	164.917526619962	833
0	7794	165.011920237516	834
0	7796	165.014342086528	835
0	7802	165.149413260562	836
0	7807	165.173956262025	837
0	7837	165.973468957369	838
0	7847	166.166187496627	839
0	7850	166.222302681862	840
0	7876	166.954215105554	841
0	7879	167.047999371009	842
0	7910	167.976055370199	843
0	7913	167.985402350546	844
0	7919	168.090608509698	845
0	7924	168.164840853858	846
0	7928	168.200416205429	847
0	7946	168.556603140407	848
0	7956	168.760246656168	849
0	7968	169.089283341583	850
0	7976	169.224072030427	851
0	7986	169.428415699909	852
0	8013	170.337980470281	853
0	8019	170.429786055778	854
0	8023	170.443292887153	855
0	8027	170.518305275777	856
0	8043	170.824093049919	857
0	8055	171.147825263203	858
0	8061	171.215872707126	859
0	8063	171.230483038557	860
0	8069	171.285744077143	861
0	8080	171.515876595729	862
0	8091	171.73311725796	863
0	8097	171.828959796857	864
0	8103	171.885449139249	865
0	8114	172.086435801061	866
0	8124	172.305674313263	867
0	8142	172.828802499747	868
0	8152	172.974478014354	869
0	8167	173.359225728488	870
0	8174	173.469586152816	871
0	8182	173.607288930425	872
0	8192	173.769084869452	873
0	8199	173.880750227305	874
0	8202	173.948419451045	875
0	8218	174.294243378582	876
0	8228	174.539469821029	877
0	8241	174.807525013425	878
0	8248	174.914704772493	879
0	8256	175.03323625608	880
0	8261	175.122664236599	881
0	8285	175.816793252706	882
0	8300	176.169610731144	883
0	8305	176.259858490842	884
0	8324	176.777823719941	885
0	8331	176.879168362721	886
0	8334	176.888588216932	887
0	8348	177.156992165169	888
0	8351	177.209948619837	889
0	8357	177.329182998116	890
0	8364	177.414884518952	891
0	8385	177.96871341552	892
0	8397	178.306157073272	893
0	8403	178.365631778854	894
0	8429	179.21223493812	895
0	8434	179.308410582981	896
0	8458	180.002981724162	897
0	8468	180.241879712864	898
0	8485	180.712546666479	899
0	8503	181.167288099817	900
0	8506	181.237641576903	901
0	8510	181.26344927754	902
0	8541	182.229393327134	903
0	8546	182.284687870443	904
0	8550	182.34206968952	905
0	8555	182.393892140696	906
0	8557	182.416281048925	907
0	8566	182.550757629333	908
0	8591	183.15375128377	909
0	8606	183.59799412041	910
0	8611	183.651157430214	911
0	8615	183.739824309414	912
0	8629	183.973911455417	913
0	8634	184.071215283369	914
0	8638	184.083240957195	915
0	8657	184.580367174064	916
0	8667	184.842759790281	917
0	8672	184.866926069534	918
0	8688	185.293866548442	919
0	8698	185.493326333275	920
0	8704	185.556937242313	921
0	8706	185.585437831443	922
0	8712	185.680740995638	923
0	8719	185.774500133966	924
0	8725	185.868275765092	925
0	8729	185.946708023017	926
0	8745	186.222999838987	927
0	8757	186.45095892032	928
0	8760	186.505270078656	929
0	8774	186.822741524594	930
0	8779	186.860454469444	931
0	8786	187.000663571309	932
0	8792	187.119973554684	933
0	8799	187.190237810992	934
0	8805	187.262853579029	935
0	8821	187.6970987553	936
0	8836	188.062604008863	937
0	8839	188.149336979938	938
0	8846	188.203630973224	939
0	8859	188.471811318142	940
0	8867	188.611398827908	941
0	8877	188.773497457344	942
0	8894	189.344982526907	943
0	8900	189.389991025679	944
0	8911	189.591014155393	945
0	8918	189.750058595655	946
0	8936	190.153975496299	947
0	8943	190.300620564035	948
0	8963	190.864002910028	949
0	8966	190.949785277182	950
0	8980	191.227656978572	951
0	8983	191.232642597718	952
0	8996	191.47315406666	953
0	8999	191.505382582425	954
0	9023	192.193571391942	955
0	9026	192.221850014489	956
0	9059	193.258875899096	957
0	9069	193.505019669302	958
0	9077	193.625250598579	959
0	9089	193.87218657379	960
0	9092	193.886887849274	961
0	9103	194.076108197525	962
0	9106	194.145394863024	963
0	9120	194.368286509367	964
0	9123	194.401345111831	965
0	9129	194.520011225483	966
0	9136	194.628091765003	967
0	9149	194.866288055682	968
0	9152	194.894437086768	969
0	9159	194.989505020696	970
0	9170	195.174832740755	971
0	9173	195.195911966737	972
0	9179	195.292427009769	973
0	9200	195.937490226512	974
0	9218	196.388985584663	975
0	9221	196.404023946496	976
0	9244	197.091148624992	977
0	9247	197.095046483582	978
0	9256	197.253368302503	979
0	9280	198.031550320585	980
0	9285	198.095818381159	981
0	9287	198.127964389272	982
0	9298	198.307374992093	983
0	9305	198.367245592681	984
0	9321	198.82138761416	985
0	9326	198.869936701632	986
0	9333	198.974358962514	987
0	9341	199.14781736628	988
0	9351	199.308444720664	989
1	0	0	0
2	0	0	0
3	0	0	0
4	2	0.159174900913	1
4	8	0.33888697861	1
4	18	0.590073130219	1
4	32	0.961993972634	1
4	40	1.146638598928	1
4	53	1.536947666105	1
4	61	1.694387894101	1
4	74	2.070180704942	1
4	82	2.180390402276	1
4	90	2.375791687555	1
4	100	2.583423547688	1
4	105	2.680449180432	1
4	114	2.795553019809	1
4	117	2.866184847637	1
4	135	3.310889732044	1
4	138	3.322566665863	1
4	162	3.985549121849	1
4	165	4.049220350017	1
4	172	4.145940771007	1
4	176	4.275830040657	1
4	192	4.589609264182	1
4	205	4.924051504247	1
4	212	5.07458632691	1
4	222	5.205362840354	1
4	230	5.373249410934	1
4	235	5.473023812737	1
4	256	5.992674629907	1
4	270	6.354348482762	1
4	273	6.369085553855	1
4	277	6.451401153104	2
4	282	6.469633358329	2
4	291	6.678555859991	1
4	293	6.682640977671	2
4	299	6.774490605122	2
4	315	7.13198813781	1
4	337	7.762022123545	1
4	350	8.063178975272	1
4	353	8.093425146005	1
4	369	8.501487997593	1
4	384	8.909666440775	1
4	397	9.678710814603	1
4	403	9.807052649139	1
4	413	10.128100560551	1
4	427	10.45090097553	1
4	435	10.574686867455	1
4	440	10.721679751693	1
4	453	11.024986946491	1
4	465	11.252174734833	1
4	468	11.277349616721	1
4	480	11.532395157166	1
4	490	11.736681532036	1
4	500	11.911145771044	1
4	503	11.942091707144	1
4	512	12.096258638837	1
4	533	12.675142734434	1
4	544	12.959415670453	1
4	555	13.106981128804	1
4	558	13.129370360931	1
4	562	13.236483504977	1
4	571	13.364822445383	1
4	575	13.426278515814	1
4	580	13.46751917222	2
4	595	13.76517013737	1
4	605	14.032228174295	1
4	613	14.154044658932	1
4	618	14.202854357079	1
4	629	14.370921298201	1
4	632	14.399976903659	1
4	634	14.403770617499	2
4	641	14.482124779634	2
4	652	14.674400967447	1
4	654	14.706828265336	2
4	665	14.896227600771	1
4	667	14.946515987186	2
4	678	15.13842558266	1
4	684	15.236136992522	1
4	705	15.811719996778	1
4	723	16.277502671621	1
4	733	16.506530462561	1
4	740	16.626079677925	1
4	746	16.715183376935	1