version 3
run General-0-20240512-22:44:41-6838
attr configname General
attr datetime 20240512-22:44:41
attr datetimef 20240512-224441
attr experiment General
attr inifile omnetpp.ini
attr iterationvars ""
attr iterationvarsd ""
attr iterationvarsf ""
attr measurement ""
attr network Network
attr processid 6838
attr repetition 0
attr replication #0
attr resultdir results
attr runnumber 0
attr seedset 0
config network Network
config sim-time-limit 200s
config Network.nodeTx.gen.packetByteSize 12500
config Network.nodeTx.gen.generationInterval exponential(0.1)
config Network.queue0.serviceTime exponential(0.001)
config Network.queue0.bufferSize 200
config Network.queue1.serviceTime exponential(0.001)
config Network.queue1.bufferSize 200
config Network.nodeTx.tranTx.bufferSize 200
config Network.nodeRx.tranRx.bufferSize 2000000

vector 0 Network.nodeTx.tranTx packetDropQueue ETV
vector 1 Network.queue0 "packets drop" ETV
vector 2 Network.queue1 "packets drop" ETV
vector 3 Network.nodeRx.tranRx packetDrop ETV
vector 4 Network.nodeTx.tranTx bufferSizeQueue ETV
vector 5 Network.queue0 bufferSizeQueue ETV
vector 6 Network.nodeRx.tranRx "buffer size" ETV
vector 7 Network.nodeRx.sink Delay ETV
vector 8 Network.queue1 bufferSizeQueue ETV
0	0	0	0
1	0	0	0
1	3132	42.681753423165	1
1	3153	42.881753423165	1
1	3170	43.081753423165	1
1	3187	43.281753423165	1
1	3212	43.481753423165	1
1	3231	43.681753423165	1
1	3256	43.881753423165	1
1	3277	44.081753423165	1
1	3296	44.281753423165	1
1	3315	44.481753423165	1
1	3338	44.681753423165	1
1	3359	44.881753423165	1
1	3380	45.081753423165	1
1	3401	45.281753423165	1
1	3424	45.481753423165	1
1	3445	45.681753423165	1
1	3464	45.881753423165	1
1	3485	46.081753423165	1
1	3502	46.281753423165	1
1	3523	46.481753423165	1
1	3546	46.681753423165	1
1	3565	46.881753423165	1
1	3587	47.124122061063	1
1	3606	47.324122061063	1
1	3647	47.693711538692	1
1	3669	47.900351525779	1
1	3694	48.100351525779	1
1	3717	48.300351525779	1
1	3738	48.500351525779	1
1	3765	48.700351525779	1
1	3784	48.900351525779	1
1	3803	49.100351525779	1
1	3826	49.300351525779	1
1	3851	49.500351525779	1
1	3872	49.700351525779	1
1	3895	49.900351525779	1
1	3916	50.100351525779	1
1	3945	50.300351525779	1
1	3964	50.500351525779	1
1	3985	50.700351525779	1
1	4004	50.900351525779	1
1	4025	51.100351525779	1
1	4044	51.300351525779	1
1	4067	51.500351525779	1
1	4088	51.700351525779	1
1	4111	51.900351525779	1
1	4128	52.100351525779	1
1	4155	52.300351525779	1
1	4182	52.500351525779	1
1	4199	52.700351525779	1
1	4222	52.900351525779	1
1	4241	53.100351525779	1
1	4260	53.300351525779	1
1	4277	53.500351525779	1
1	4298	53.700351525779	1
1	4323	53.900351525779	1
1	4346	54.100351525779	1
1	4363	54.300351525779	1
1	4382	54.500351525779	1
1	4401	54.700351525779	1
1	4420	54.900351525779	1
1	4443	55.100351525779	1
1	4460	55.300351525779	1
1	4483	55.500351525779	1
1	4502	55.700351525779	1
1	4519	55.900351525779	1
1	4540	56.100351525779	1
1	4559	56.300351525779	1
1	4578	56.500351525779	1
1	4599	56.700351525779	1
1	4620	56.900351525779	1
1	4639	57.100351525779	1
1	4660	57.300351525779	1
1	4679	57.500351525779	1
1	4702	57.700351525779	1
1	4723	57.900351525779	1
1	4740	58.100351525779	1
1	4761	58.300351525779	1
1	4783	58.508510483143	1
1	4802	58.708510483143	1
1	4930	60.102278997619	1
1	4955	60.302278997619	1
1	4978	60.502278997619	1
1	4995	60.702278997619	1
1	5018	60.902278997619	1
1	5037	61.102278997619	1
1	5056	61.302278997619	1
1	5075	61.502278997619	1
1	5094	61.702278997619	1
1	5113	61.902278997619	1
1	5132	62.102278997619	1
1	5176	62.525425847562	1
1	5201	62.725425847562	1
1	5222	62.925425847562	1
1	5243	63.125425847562	1
1	5264	63.325425847562	1
1	5283	63.525425847562	1
1	5308	63.725425847562	1
1	5331	63.925425847562	1
1	5354	64.125425847562	1
1	5375	64.325425847562	1
1	5396	64.525425847562	1
1	5419	64.725425847562	1
1	5440	64.925425847562	1
1	5459	65.125425847562	1
1	5480	65.325425847562	1
1	5507	65.525425847562	1
1	5532	65.725425847562	1
1	5555	65.925425847562	1
1	5578	66.125425847562	1
1	5599	66.325425847562	1
1	5620	66.525425847562	1
1	5641	66.725425847562	1
1	5664	66.925425847562	1
1	5687	67.125425847562	1
1	5710	67.325425847562	1
1	5729	67.525425847562	1
1	5748	67.725425847562	1
1	5769	67.925425847562	1
1	5798	68.125425847562	1
1	5817	68.325425847562	1
1	5842	68.525425847562	1
1	5863	68.725425847562	1
1	5884	68.925425847562	1
1	5903	69.125425847562	1
1	5926	69.325425847562	1
1	5947	69.525425847562	1
1	5968	69.725425847562	1
1	5991	69.925425847562	1
1	6008	70.125425847562	1
1	6031	70.325425847562	1
1	6052	70.525425847562	1
1	6075	70.725425847562	1
1	6100	70.925425847562	1
1	6123	71.125425847562	1
1	6150	71.325425847562	1
1	6167	71.525425847562	1
1	6192	71.725425847562	1
1	6211	71.925425847562	1
1	6234	72.125425847562	1
1	6253	72.325425847562	1
1	6272	72.525425847562	1
1	6295	72.725425847562	1
1	6314	72.925425847562	1
1	6333	73.125425847562	1
1	6356	73.325425847562	1
1	6377	73.525425847562	1
1	6398	73.725425847562	1
1	6419	73.925425847562	1
1	6440	74.125425847562	1
1	6463	74.325425847562	1
1	6484	74.525425847562	1
1	6507	74.725425847562	1
1	6528	74.925425847562	1
1	6545	75.125425847562	1
1	6570	75.325425847562	1
1	6589	75.525425847562	1
1	6608	75.725425847562	1
1	6627	75.925425847562	1
1	6650	76.125425847562	1
1	6667	76.325425847562	1
1	6688	76.525425847562	1
1	6707	76.725425847562	1
1	6728	76.925425847562	1
1	6747	77.125425847562	1
1	6766	77.325425847562	1
1	6783	77.525425847562	1
1	6802	77.725425847562	1
1	6827	77.925425847562	1
1	6850	78.125425847562	1
1	6867	78.325425847562	1
1	6888	78.525425847562	1
1	6907	78.725425847562	1
1	6930	78.925425847562	1
1	6949	79.125425847562	1
1	6972	79.325425847562	1
1	6991	79.525425847562	1
1	7014	79.725425847562	1
1	7039	79.925425847562	1
1	7060	80.125425847562	1
1	7083	80.325425847562	1
1	7100	80.525425847562	1
1	7123	80.725425847562	1
1	7142	80.925425847562	1
1	7163	81.125425847562	1
1	7184	81.325425847562	1
1	7213	81.525425847562	1
1	7232	81.725425847562	1
1	7259	81.925425847562	1
1	7284	82.125425847562	1
1	7311	82.325425847562	1
1	7336	82.525425847562	1
1	7357	82.725425847562	1
1	7374	82.925425847562	1
1	7397	83.125425847562	1
1	7414	83.325425847562	1
1	7435	83.525425847562	1
1	7452	83.725425847562	1
1	7469	83.925425847562	1
1	7496	84.125425847562	1
1	7515	84.325425847562	1
1	7534	84.525425847562	1
1	7557	84.725425847562	1
1	7574	84.925425847562	1
1	7591	85.125425847562	1
1	7616	85.325425847562	1
1	7635	85.525425847562	1
1	7660	85.725425847562	1
1	7683	85.925425847562	1
1	7704	86.125425847562	1
1	7723	86.325425847562	1
1	7744	86.525425847562	1
1	7763	86.725425847562	1
1	7786	86.925425847562	1
1	7807	87.125425847562	1
1	7828	87.325425847562	1
1	7851	87.525425847562	1
1	7870	87.725425847562	1
1	7889	87.925425847562	1
1	7908	88.125425847562	1
1	7927	88.325425847562	1
1	7950	88.525425847562	1
1	7975	88.725425847562	1
1	7992	88.925425847562	1
1	8011	89.125425847562	1
1	8032	89.325425847562	1
1	8049	89.525425847562	1
1	8070	89.725425847562	1
1	8087	89.925425847562	1
1	8108	90.125425847562	1
1	8125	90.325425847562	1
1	8144	90.525425847562	1
1	8167	90.725425847562	1
1	8184	90.925425847562	1
1	8203	91.125425847562	1
1	8230	91.325425847562	1
1	8247	91.525425847562	1
1	8266	91.725425847562	1
1	8289	91.925425847562	1
1	8312	92.125425847562	1
1	8331	92.325425847562	1
1	8352	92.525425847562	1
1	8371	92.725425847562	1
1	8398	92.925425847562	1
1	8421	93.125425847562	1
1	8442	93.325425847562	1
1	8465	93.525425847562	1
1	8488	93.725425847562	1
1	8507	93.925425847562	1
1	8530	94.125425847562	1
1	8551	94.325425847562	1
1	8570	94.525425847562	1
1	8591	94.725425847562	1
1	8612	94.925425847562	1
1	8631	95.125425847562	1
1	8650	95.325425847562	1
1	8671	95.525425847562	1
1	8692	95.725425847562	1
1	8713	95.925425847562	1
1	8734	96.125425847562	1
1	8751	96.325425847562	1
1	8768	96.525425847562	1
1	8787	96.725425847562	1
1	8808	96.925425847562	1
1	8833	97.125425847562	1
1	8858	97.325425847562	1
1	8881	97.525425847562	1
1	8904	97.725425847562	1
1	8921	97.925425847562	1
1	8940	98.125425847562	1
1	8961	98.325425847562	1
1	8978	98.525425847562	1
1	9001	98.725425847562	1
1	9018	98.925425847562	1
1	9041	99.125425847562	1
1	9062	99.325425847562	1
1	9085	99.525425847562	1
1	9106	99.725425847562	1
1	9123	99.925425847562	1
1	9146	100.125425847562	1
1	9165	100.325425847562	1
1	9184	100.525425847562	1
1	9207	100.725425847562	1
1	9228	100.925425847562	1
1	9253	101.125425847562	1
1	9270	101.325425847562	1
1	9293	101.525425847562	1
1	9316	101.725425847562	1
1	9335	101.925425847562	1
1	9354	102.125425847562	1
1	9371	102.325425847562	1
1	9390	102.525425847562	1
1	9413	102.725425847562	1
1	9438	102.925425847562	1
1	9455	103.125425847562	1
1	9480	103.325425847562	1
1	9503	103.525425847562	1
1	9524	103.725425847562	1
1	9543	103.925425847562	1
1	9562	104.125425847562	1
1	9581	104.325425847562	1
1	9602	104.525425847562	1
1	9625	104.725425847562	1
1	9646	104.925425847562	1
1	9665	105.125425847562	1
1	9690	105.325425847562	1
1	9711	105.525425847562	1
1	9732	105.725425847562	1
1	9759	105.925425847562	1
1	9780	106.125425847562	1
1	9803	106.325425847562	1
1	9830	106.525425847562	1
1	9849	106.725425847562	1
1	9874	106.925425847562	1
1	9891	107.125425847562	1
1	9912	107.325425847562	1
1	9937	107.525425847562	1
1	9958	107.725425847562	1
1	9979	107.925425847562	1
1	9998	108.125425847562	1
1	10017	108.325425847562	1
1	10042	108.525425847562	1
1	10063	108.725425847562	1
1	10080	108.925425847562	1
1	10101	109.125425847562	1
1	10120	109.325425847562	1
1	10137	109.525425847562	1
1	10156	109.725425847562	1
1	10177	109.925425847562	1
1	10200	110.125425847562	1
1	10219	110.325425847562	1
1	10240	110.525425847562	1
1	10263	110.725425847562	1
1	10282	110.925425847562	1
1	10305	111.125425847562	1
1	10324	111.325425847562	1
1	10341	111.525425847562	1
1	10362	111.725425847562	1
1	10383	111.925425847562	1
1	10406	112.125425847562	1
1	10427	112.325425847562	1
1	10448	112.525425847562	1
1	10467	112.725425847562	1
1	10486	112.925425847562	1
1	10505	113.125425847562	1
1	10526	113.325425847562	1
1	10549	113.525425847562	1
1	10566	113.725425847562	1
1	10587	113.925425847562	1
1	10606	114.125425847562	1
1	10629	114.325425847562	1
1	10646	114.525425847562	1
1	10671	114.725425847562	1
1	10688	114.925425847562	1
1	10709	115.125425847562	1
1	10730	115.325425847562	1
1	10747	115.525425847562	1
1	10768	115.725425847562	1
1	10791	115.925425847562	1
1	10818	116.125425847562	1
1	10835	116.325425847562	1
1	10858	116.525425847562	1
1	10877	116.725425847562	1
1	10898	116.925425847562	1
1	10917	117.125425847562	1
1	10940	117.325425847562	1
1	10959	117.525425847562	1
1	10984	117.725425847562	1
1	11009	117.925425847562	1
1	11030	118.125425847562	1
1	11049	118.325425847562	1
1	11068	118.525425847562	1
1	11097	118.725425847562	1
1	11116	118.925425847562	1
1	11137	119.125425847562	1
1	11158	119.325425847562	1
1	11179	119.525425847562	1
1	11200	119.725425847562	1
1	11225	119.925425847562	1
1	11242	120.125425847562	1
1	11259	120.325425847562	1
1	11276	120.525425847562	1
1	11301	120.725425847562	1
1	11326	120.925425847562	1
1	11343	121.125425847562	1
1	11362	121.325425847562	1
1	11379	121.525425847562	1
1	11400	121.725425847562	1
1	11423	121.925425847562	1
1	11446	122.125425847562	1
1	11467	122.325425847562	1
1	11492	122.525425847562	1
1	11513	122.725425847562	1
1	11532	122.925425847562	1
1	11555	123.125425847562	1
1	11574	123.325425847562	1
1	11597	123.525425847562	1
1	11616	123.725425847562	1
1	11635	123.925425847562	1
1	11660	124.125425847562	1
1	11683	124.325425847562	1
1	11702	124.525425847562	1
1	11723	124.725425847562	1
1	11746	124.925425847562	1
1	11763	125.125425847562	1
1	11780	125.325425847562	1
1	11799	125.525425847562	1
1	11816	125.725425847562	1
1	11835	125.925425847562	1
1	11856	126.125425847562	1
1	11875	126.325425847562	1
1	11894	126.525425847562	1
1	11915	126.725425847562	1
1	11936	126.925425847562	1
1	12048	128.179912664167	1
1	12077	128.379912664167	1
1	12104	128.579912664167	1
1	12123	128.779912664167	1
1	12144	128.979912664167	1
1	12161	129.179912664167	1
1	12188	129.379912664167	1
1	12209	129.579912664167	1
1	12226	129.779912664167	1
1	12247	129.979912664167	1
1	12264	130.179912664167	1
1	12283	130.379912664167	1
1	12304	130.579912664167	1
1	12323	130.779912664167	1
1	12342	130.979912664167	1
1	12359	131.179912664167	1
1	12423	131.743459767573	1
1	12442	131.943459767573	1
1	12465	132.143459767573	1
1	12482	132.343459767573	1
1	12501	132.543459767573	1
1	12531	132.74640130489	1
1	12558	132.94640130489	1
1	12575	133.14640130489	1
1	12594	133.34640130489	1
1	12613	133.54640130489	1
1	12630	133.74640130489	1
1	12659	133.94640130489	1
1	12682	134.14640130489	1
1	12699	134.34640130489	1
1	12718	134.54640130489	1
1	12735	134.74640130489	1
1	12759	134.974681545182	1
1	12782	135.174681545182	1
1	12807	135.374681545182	1
1	12834	135.574681545182	1
1	12853	135.774681545182	1
1	12874	135.974681545182	1
1	12897	136.174681545182	1
1	12922	136.374681545182	1
1	12945	136.574681545182	1
1	12966	136.774681545182	1
1	12983	136.974681545182	1
1	13004	137.174681545182	1
1	13025	137.374681545182	1
1	13050	137.574681545182	1
1	13071	137.774681545182	1
1	13092	137.974681545182	1
1	13117	138.174681545182	1
1	13136	138.374681545182	1
1	13161	138.574681545182	1
1	13184	138.774681545182	1
1	13207	138.974681545182	1
1	13224	139.174681545182	1
1	13243	139.374681545182	1
1	13264	139.574681545182	1
1	13283	139.774681545182	1
1	13302	139.974681545182	1
1	13327	140.174681545182	1
1	13344	140.374681545182	1
1	13365	140.574681545182	1
1	13384	140.774681545182	1
1	13403	140.974681545182	1
1	13424	141.174681545182	1
1	13441	141.374681545182	1
1	13462	141.574681545182	1
1	13483	141.774681545182	1
1	13504	141.974681545182	1
1	13523	142.174681545182	1
1	13546	142.374681545182	1
1	13571	142.574681545182	1
1	13608	142.774681545182	1
1	13631	142.974681545182	1
1	13656	143.174681545182	1
1	13675	143.374681545182	1
1	13694	143.574681545182	1
1	13713	143.774681545182	1
1	13734	143.974681545182	1
1	13759	144.174681545182	1
1	13780	144.374681545182	1
1	13807	144.574681545182	1
1	13826	144.774681545182	1
1	13849	144.974681545182	1
1	13866	145.174681545182	1
1	13891	145.374681545182	1
1	13912	145.574681545182	1
1	13931	145.774681545182	1
1	13950	145.974681545182	1
1	13971	146.174681545182	1
1	13992	146.374681545182	1
1	14009	146.574681545182	1
1	14028	146.774681545182	1
1	14047	146.974681545182	1
1	14068	147.174681545182	1
1	14091	147.374681545182	1
1	14116	147.574681545182	1
1	14143	147.774681545182	1
1	14164	147.974681545182	1
1	14187	148.174681545182	1
1	14212	148.374681545182	1
1	14235	148.574681545182	1
1	14252	148.774681545182	1
1	14275	148.974681545182	1
1	14298	149.174681545182	1
1	14321	149.374681545182	1
1	14340	149.574681545182	1
1	14359	149.774681545182	1
1	14376	149.974681545182	1
1	14397	150.174681545182	1
1	14416	150.374681545182	1
1	14435	150.574681545182	1
1	14456	150.774681545182	1
1	14477	150.974681545182	1
1	14500	151.174681545182	1
1	14517	151.374681545182	1
1	14540	151.574681545182	1
1	14557	151.774681545182	1
1	14578	151.974681545182	1
1	14597	152.174681545182	1
1	14628	152.374681545182	1
1	14645	152.574681545182	1
1	14664	152.774681545182	1
1	14685	152.974681545182	1
1	14706	153.174681545182	1
1	14729	153.374681545182	1
1	14752	153.574681545182	1
1	14771	153.774681545182	1
1	14790	153.974681545182	1
1	14807	154.174681545182	1
1	14826	154.374681545182	1
1	14845	154.574681545182	1
1	14862	154.774681545182	1
1	14881	154.974681545182	1
1	14902	155.174681545182	1
1	14921	155.374681545182	1
1	14938	155.574681545182	1
1	14961	155.774681545182	1
1	14980	155.974681545182	1
1	15007	156.174681545182	1
1	15028	156.374681545182	1
1	15047	156.574681545182	1
1	15066	156.774681545182	1
1	15089	156.974681545182	1
1	15114	157.174681545182	1
1	15135	157.374681545182	1
1	15156	157.574681545182	1
1	15175	157.774681545182	1
1	15194	157.974681545182	1
1	15215	158.174681545182	1
1	15236	158.374681545182	1
1	15259	158.574681545182	1
1	15276	158.774681545182	1
1	15297	158.974681545182	1
1	15324	159.174681545182	1
1	15347	159.374681545182	1
1	15366	159.574681545182	1
1	15391	159.774681545182	1
1	15410	159.974681545182	1
1	15431	160.174681545182	1
1	15450	160.374681545182	1
1	15467	160.574681545182	1
1	15488	160.774681545182	1
1	15509	160.974681545182	1
1	15528	161.174681545182	1
1	15549	161.374681545182	1
1	15580	161.574681545182	1
1	15599	161.774681545182	1
1	15620	161.974681545182	1
1	15641	162.174681545182	1
1	15660	162.374681545182	1
1	15681	162.574681545182	1
1	15702	162.774681545182	1
1	15719	162.974681545182	1
1	15742	163.174681545182	1
1	15761	163.374681545182	1
1	15782	163.574681545182	1
1	15803	163.774681545182	1
1	15824	163.974681545182	1
1	15849	164.174681545182	1
1	15876	164.374681545182	1
1	15899	164.574681545182	1
1	15922	164.774681545182	1
1	15943	164.974681545182	1
1	15968	165.174681545182	1
1	15999	165.374681545182	1
1	16016	165.574681545182	1
1	16041	165.774681545182	1
1	16060	165.974681545182	1
1	16079	166.174681545182	1
1	16104	166.374681545182	1
1	16127	166.574681545182	1
1	16148	166.774681545182	1
1	16167	166.974681545182	1
1	16188	167.174681545182	1
1	16209	167.374681545182	1
1	16230	167.574681545182	1
1	16257	167.774681545182	1
1	16276	167.974681545182	1
1	16303	168.174681545182	1
1	16324	168.374681545182	1
1	16343	168.574681545182	1
1	16366	168.774681545182	1
1	16385	168.974681545182	1
1	16404	169.174681545182	1
1	16423	169.374681545182	1
1	16446	169.574681545182	1
1	16467	169.774681545182	1
1	16490	169.974681545182	1
1	16509	170.174681545182	1
1	16526	170.374681545182	1
1	16545	170.574681545182	1
1	16564	170.774681545182	1
1	16589	170.974681545182	1
1	16608	171.174681545182	1
1	16629	171.374681545182	1
1	16648	171.574681545182	1
1	16669	171.774681545182	1
1	16690	171.974681545182	1
1	16715	172.174681545182	1
1	16734	172.374681545182	1
1	16755	172.574681545182	1
1	16774	172.774681545182	1
1	16795	172.974681545182	1
1	16820	173.174681545182	1
1	16839	173.374681545182	1
1	16858	173.574681545182	1
1	16885	173.774681545182	1
1	16904	173.974681545182	1
1	16925	174.174681545182	1
1	16944	174.374681545182	1
1	16967	174.574681545182	1
1	16988	174.774681545182	1
1	17009	174.974681545182	1
1	17034	175.174681545182	1
1	17055	175.374681545182	1
1	17078	175.574681545182	1
1	17097	175.774681545182	1
1	17114	175.974681545182	1
1	17133	176.174681545182	1
1	17156	176.374681545182	1
1	17179	176.574681545182	1
1	17200	176.774681545182	1
1	17223	176.974681545182	1
1	17244	177.174681545182	1
1	17263	177.374681545182	1
1	17282	177.574681545182	1
1	17301	177.774681545182	1
1	17320	177.974681545182	1
1	17341	178.174681545182	1
1	17358	178.374681545182	1
1	17375	178.574681545182	1
1	17394	178.774681545182	1
1	17415	178.974681545182	1
1	17442	179.174681545182	1
1	17465	179.374681545182	1
1	17490	179.574681545182	1
1	17509	179.774681545182	1
1	17526	179.974681545182	1
1	17547	180.174681545182	1
1	17570	180.374681545182	1
1	17589	180.574681545182	1
1	17608	180.774681545182	1
1	17631	180.974681545182	1
1	17658	181.174681545182	1
1	17675	181.374681545182	1
1	17696	181.574681545182	1
1	17715	181.774681545182	1
1	17736	181.974681545182	1
1	17757	182.174681545182	1
1	17780	182.374681545182	1
1	17801	182.574681545182	1
1	17822	182.774681545182	1
1	17843	182.974681545182	1
1	17860	183.174681545182	1
1	17885	183.374681545182	1
1	17904	183.574681545182	1
1	17925	183.774681545182	1
1	17950	183.974681545182	1
1	17967	184.174681545182	1
1	17984	184.374681545182	1
1	18005	184.574681545182	1
1	18026	184.774681545182	1
1	18045	184.974681545182	1
1	18066	185.174681545182	1
1	18091	185.374681545182	1
1	18108	185.574681545182	1
1	18133	185.774681545182	1
1	18152	185.974681545182	1
1	18171	186.174681545182	1
1	18194	186.374681545182	1
1	18213	186.574681545182	1
1	18232	186.774681545182	1
1	18255	186.974681545182	1
1	18274	187.174681545182	1
1	18299	187.374681545182	1
1	18322	187.574681545182	1
1	18343	187.774681545182	1
1	18364	187.974681545182	1
1	18383	188.174681545182	1
1	18404	188.374681545182	1
1	18421	188.574681545182	1
1	18438	188.774681545182	1
1	18461	188.974681545182	1
1	18484	189.174681545182	1
1	18509	189.374681545182	1
1	18530	189.574681545182	1
1	18551	189.774681545182	1
1	18568	189.974681545182	1
1	18589	190.174681545182	1
1	18612	190.374681545182	1
1	18633	190.574681545182	1
1	18654	190.774681545182	1
1	18673	190.974681545182	1
1	18696	191.174681545182	1
1	18713	191.374681545182	1
1	18732	191.574681545182	1
1	18749	191.774681545182	1
1	18770	191.974681545182	1
1	18791	192.174681545182	1
1	18818	192.374681545182	1
1	18839	192.574681545182	1
1	18860	192.774681545182	1
1	18879	192.974681545182	1
1	18898	193.174681545182	1
1	18923	193.374681545182	1
1	18942	193.574681545182	1
1	18967	193.774681545182	1
1	18986	193.974681545182	1
1	19009	194.174681545182	1
1	19026	194.374681545182	1
1	19049	194.574681545182	1
1	19074	194.774681545182	1
1	19093	194.974681545182	1
1	19112	195.174681545182	1
1	19135	195.374681545182	1
1	19152	195.574681545182	1
1	19171	195.774681545182	1
1	19190	195.974681545182	1
1	19213	196.174681545182	1
1	19230	196.374681545182	1
1	19247	196.574681545182	1
1	19264	196.774681545182	1
1	19281	196.974681545182	1
1	19304	197.174681545182	1
1	19329	197.374681545182	1
1	19350	197.574681545182	1
1	19369	197.774681545182	1
1	19390	197.974681545182	1
1	19411	198.174681545182	1
1	19432	198.374681545182	1
1	19453	198.574681545182	1
1	19474	198.774681545182	1
1	19491	198.974681545182	1
1	19512	199.174681545182	1
1	19533	199.374681545182	1
1	19554	199.574681545182	1
1	19575	199.774681545182	1
1	19596	199.974681545182	1
2	0	0	0
3	0	0	0
4	2	0.079587450457	1
4	5	0.169443489305	1
4	12	0.29503656511	1
4	20	0.480996986317	1
4	23	0.573319299464	1
4	33	0.768473833052	1
4	40	0.84719394705	1
4	50	1.03509035247	1
4	53	1.090195201137	1
4	61	1.187895843776	1
4	65	1.291711773842	1
4	69	1.340224590214	1
4	75	1.397776509902	2
4	77	1.433092423816	3
4	89	1.65544486602	1
4	91	1.661283332929	2
4	107	1.992774560922	1
4	110	2.024610175006	1
4	112	2.072970385501	2
4	116	2.137915020326	2
4	126	2.294804632088	1
4	134	2.46202575212	1
4	138	2.537293163451	1
4	146	2.602681420173	1
4	148	2.686624705463	2
4	152	2.736511906365	2
4	168	2.99633731495	1
4	173	3.177174241377	1
4	180	3.184542776924	1
4	182	3.225700576548	2
4	184	3.23481667916	3
4	188	3.339277929991	3
4	190	3.341320488831	4
4	198	3.387245302557	4
4	202	3.565994068901	4
4	220	3.881011061769	1
4	228	4.031589487633	1
4	230	4.046712572999	2
4	240	4.250743998793	1
4	250	4.454833220384	1
4	263	4.839355407298	1
4	266	4.903526324566	1
4	276	5.064050280272	1
4	285	5.225450487761	1
4	288	5.287343433724	1
4	292	5.360839875843	1
4	300	5.512493473242	1
4	310	5.626087367413	1
4	313	5.638674808357	1
4	317	5.766197578579	1
4	325	5.868340766014	1
4	329	5.955572885518	1
4	331	5.971045853568	2
4	339	6.048129319415	2
4	351	6.337571367214	1
4	360	6.479707835223	1
4	363	6.553490564399	1
4	365	6.564685180462	2
4	373	6.618241752485	2
4	377	6.682411222688	2
4	379	6.713139257903	3
4	381	6.733759586106	4
4	391	6.882585068681	3
4	399	7.016114087143	3
4	401	7.077022329461	4
4	405	7.101427178535	4
4	413	7.185460649096	4
4	415	7.199988451825	5
4	417	7.201885308745	6
4	419	7.241062389813	7
4	423	7.33720048372	7
4	425	7.353414132665	8
4	433	7.448113800382	8
4	435	7.473257993589	9
4	439	7.569212791326	9
4	447	7.618068496257	9
4	459	7.905859998385	7
4	469	8.138751335806	6
4	477	8.253265231276	6
4	481	8.313039838958	6
4	483	8.357591688463	7
4	491	8.452541146813	7
4	495	8.509994387487	7
4	505	8.742629493656	6
4	513	8.862240273602	6
4	515	8.87269639618	7
4	517	8.878907925227	8
4	535	9.228929293672	5
4	539	9.338820540427	5
4	547	9.444703953576	5
4	551	9.555763698145	5
4	553	9.574506304747	6
4	561	9.598126975355	6
4	563	9.642467378217	7
4	565	9.65627024706	8
4	575	9.795174516039	7
4	577	9.833070712467	8
4	581	9.926676868444	8
4	583	9.971887074466	9
4	591	10.011198330196	9
4	595	10.095641109549	9
4	597	10.09955942519	10
4	599	10.157291856271	11
4	607	10.257878956788	11
4	627	10.703328641406	7
4	643	11.022623305611	5
4	645	11.033386816427	6
4	649	11.139169457762	6
4	651	11.16259960964	7
4	659	11.263401534182	7
4	663	11.280992888725	7
4	687	11.817002923749	3
4	691	11.922877195258	3
4	699	12.010068780621	3
4	701	12.039276833948	4
4	705	12.092783301656	4
4	707	12.155577459755	5
4	715	12.219955559915	5
4	717	12.247983260763	6
4	721	12.34566966817	6
4	723	12.362982413785	7
4	731	12.404232536777	7
4	733	12.415928077756	8
4	737	12.528244907909	8
4	745	12.635052127624	8
4	747	12.673207711961	9
4	751	12.688078938886	9
4	759	12.838742472213	9
4	761	12.860630531864	10
4	773	13.159349521049	8
4	781	13.205350916823	8
4	785	13.313977854911	8
4	795	13.486011020683	7
4	797	13.487377478526	8
4	799	13.497591966678	9
4	807	13.595102160094	9
4	811	13.777084052022	9
4	821	13.889065488597	8
4	823	13.899168966128	9
4	839	14.256527803362	7
4	857	14.63143094932	4
4	867	14.841963079399	3
4	871	14.905196739039	3
4	873	14.976455098372	4
4	891	15.352647826822	1
4	893	15.358380519464	2
4	901	15.451228369154	2
4	905	15.511223057818	2
4	913	15.645647585033	2
4	915	15.647666597848	3
4	917	15.651664227754	4
4	921	15.709952066641	4
4	923	15.743193090737	5
4	941	16.132350103022	2
4	943	16.145155779553	3
4	951	16.189697725745	3
4	953	16.224815334683	4
4	957	16.290379963119	4
4	959	16.303018826762	5
4	967	16.419706179417	5
4	969	16.457976274303	6
4	979	16.670399994003	5
4	983	16.723888431579	5
4	993	16.974279609888	4
4	1001	16.980909350036	4
4	1003	17.005348894844	5
4	1007	17.123267847551	5
4	1015	17.206552199158	5
4	1019	17.290161952355	5
4	1029	17.490486004606	4
4	1031	17.521327488616	5
4	1039	17.592452282338	5
4	1041	17.666528177383	6
4	1053	17.915086413081	4
4	1055	17.924951443923	5
4	1065	18.178981894719	4
4	1073	18.264771458826	4
4	1075	18.27344850706	5
4	1087	18.538374099928	3
4	1089	18.570908141481	4
4	1097	18.609264162891	4
4	1099	18.610204237957	5
4	1103	18.720288828966	5
4	1113	18.905021594066	4
4	1115	18.919154665422	5
4	1123	19.02333273084	5
4	1127	19.149326111851	5
4	1137	19.333454359	4
4	1139	19.367619775703	5
4	1147	19.398371548079	5
4	1149	19.418606591936	6
4	1151	19.469326604262	7
4	1155	19.557639508458	7
4	1163	19.638119248438	7
4	1165	19.640150494318	8
4	1167	19.658175719516	9
4	1177	19.834749826757	8
4	1181	19.880922916361	8
4	1183	19.88139357041	9
4	1185	19.897227721033	10
4	1193	20.01049113523	10
4	1197	20.094799438445	10
4	1199	20.12627160453	11
4	1207	20.247922469874	11
4	1217	20.380798257249	10
4	1219	20.414832931073	11
4	1231	20.742347248844	9
4	1239	20.799137664192	9
4	1241	20.827739761443	10
4	1245	20.968842202372	10
4	1253	21.054681499155	10
4	1257	21.105115879814	10
4	1265	21.194774966893	10
4	1275	21.421148324479	9
4	1279	21.506070405635	9
4	1287	21.607936278637	9
4	1289	21.633178277926	10
4	1299	21.855328967773	9
4	1311	22.160557133461	7
4	1319	22.274517929814	7
4	1323	22.333780332559	7
4	1331	22.393418271992	7
4	1341	22.580764259978	6
4	1353	22.965064918302	4
4	1363	23.085288775027	3
4	1365	23.097641439763	4
4	1367	23.13294345309	5
4	1375	23.278625308946	5
4	1385	23.446717529401	4
4	1389	23.499789779063	4
4	1391	23.550291653838	5
4	1399	23.662819855522	5
4	1409	23.875769795129	4
4	1413	23.904510842736	4
4	1421	23.991564425369	4
4	1423	24.02913830961	5
4	1433	24.242621354608	4
4	1445	24.579058399913	2
4	1455	24.696996693277	1
4	1463	24.785782834321	1
4	1467	24.914973761201	1
4	1475	25.022757249615	1
4	1479	25.092337195705	1
4	1481	25.168523972835	2
4	1497	25.481070808601	1
4	1500	25.507276532769	1
4	1508	25.610556233834	1
4	1510	25.66078731366	2
4	1514	25.715926912673	2
4	1522	25.812372269222	2
4	1526	25.905612557263	2
4	1528	25.970023028095	3
4	1530	25.97196100623	4
4	1538	26.035473777793	4
4	1540	26.07136649938	5
4	1550	26.197270851106	4
4	1554	26.305202870972	4
4	1556	26.33916934423	5
4	1558	26.3734293067	6
4	1566	26.421792875359	6
4	1570	26.518030380936	6
4	1578	26.65632830159	6
4	1582	26.712324408597	6
4	1592	26.923069169092	5
4	1594	26.937626566937	6
4	1596	26.948481276786	7
4	1604	26.983903690011	7
4	1606	26.993595965469	8
4	1608	27.077984812728	9
4	1612	27.121687614105	9
4	1620	27.211060521936	9
4	1624	27.291315720512	9
4	1626	27.376723694076	10
4	1632	27.380144035912	11
4	1638	27.48604497445	10
4	1654	27.833298522378	8
4	1658	27.938883483244	8
4	1660	27.977596492459	9
4	1668	28.034057542571	9
4	1670	28.059065692069	10
4	1682	28.285929091338	8
4	1684	28.301158453863	9
4	1686	28.346975742259	10
4	1688	28.357207803744	11
4	1696	28.414453958887	11
4	1714	28.828234934938	8
4	1724	29.050726400661	7
4	1726	29.080882991983	8
4	1736	29.244972749776	7
4	1740	29.321980435731	7
4	1748	29.443682385265	7
4	1752	29.503089735097	7
4	1754	29.51365099946	8
4	1756	29.52413918302	9
4	1766	29.776067396028	8
4	1774	29.819501961622	8
4	1778	29.944762714113	8
4	1786	30.008108975885	8
4	1814	30.684648027879	2
4	1822	30.868621306387	2
4	1826	30.884808315058	2
4	1836	31.119826044033	1
4	1846	31.322416925743	1
4	1849	31.326245217031	1
4	1851	31.343977774546	2
4	1857	31.414969567268	3
4	1861	31.51056620966	3
4	1865	31.528820069848	3
4	1867	31.542038440809	4
4	1875	31.69302078637	4
4	1885	31.881413675029	3
4	1895	32.081612324582	2
4	1905	32.246284234715	1
4	1907	32.299284522529	2
4	1915	32.383472618702	2
4	1917	32.398551719721	3
4	1921	32.45083872273	3
4	1923	32.454217401285	4
4	1925	32.461384939716	5
4	1943	32.866369623596	2
4	1951	32.985913480224	2
4	1955	33.032640736865	2
4	1957	33.09307064405	3
4	1961	33.147556356864	3
4	1969	33.275589777245	3
4	1971	33.280781032463	4
4	1981	33.482058306084	3
4	1985	33.527549490563	3
4	2001	33.898545549753	1
4	2003	33.900222326352	2
4	2013	34.093880050101	1
4	2015	34.120112981018	2
4	2017	34.12129130421	3
4	2027	34.266070712409	2
4	2029	34.310695994461	3
4	2068	34.599157169671	1
4	2074	34.730087006073	1
4	2098	34.868716141275	1
4	2101	34.887545638797	1
4	2103	34.929006893063	2
4	2126	35.002620003062	2
4	2130	35.069866054745	2
4	2132	35.075453060034	3
4	2134	35.116850952301	4
4	2136	35.139164873111	5
4	2138	35.158947823857	6
4	2140	35.160817370899	7
4	2144	35.179569266019	7
4	2167	35.33741053823	7
4	2190	35.399670272628	7
4	2192	35.425020843142	8