version 3
run General-0-20240513-13:54:27-11078
attr configname General
attr datetime 20240513-13:54:27
attr datetimef 20240513-135427
attr experiment General
attr inifile omnetpp.ini
attr iterationvars ""
attr iterationvarsd ""
attr iterationvarsf ""
attr measurement ""
attr network Network
attr processid 11078
attr repetition 0
attr replication #0
attr resultdir results
attr runnumber 0
attr seedset 0
config network Network
config sim-time-limit 200s
config Network.queue.serviceTime exponential(0.001)
config Network.queue.bufferSize 200
config Network.nodeRx.queue.bufferSize 200
config Network.nodeRx.queue.serviceTime exponential(0.001)
config Network.nodeTx.gen.packetByteSize 12500
config Network.nodeTx.gen.generationInterval exponential(0.1)
config Network.nodeTx.queue.bufferSize 2000000
config Network.nodeTx.queue.serviceTime exponential(0.001)

vector 0 Network.nodeTx.queue packetsDrop ETV
vector 1 Network.queue packetsDrop ETV
vector 2 Network.nodeRx.queue packetsDrop ETV
vector 3 Network.nodeTx.gen packetGen ETV
vector 4 Network.nodeTx.queue bufferSizeQueue ETV
vector 5 Network.queue bufferSizeQueue ETV
vector 6 Network.nodeRx.queue bufferSizeQueue ETV
vector 7 Network.nodeRx.sink Delay ETV
vector 8 Network.nodeRx.sink PacketUsed ETV
0	0	0	0
1	0	0	0
2	0	0	0
2	2969	42.981853423165	1
2	2979	43.181853423165	1
2	2991	43.381853423165	1
2	3007	43.581853423165	1
2	3019	43.781853423165	1
2	3039	43.981853423165	1
2	3051	44.181853423165	1
2	3065	44.381853423165	1
2	3079	44.581853423165	1
2	3093	44.781853423165	1
2	3105	44.981853423165	1
2	3123	45.181853423165	1
2	3135	45.381853423165	1
2	3151	45.581853423165	1
2	3163	45.781853423165	1
2	3177	45.981853423165	1
2	3189	46.181853423165	1
2	3203	46.381853423165	1
2	3219	46.581853423165	1
2	3231	46.781853423165	1
2	3241	46.981853423165	1
2	3259	47.224222061063	1
2	3272	47.424222061063	1
2	3295	47.793811538692	1
2	3315	48.000451525779	1
2	3333	48.200451525779	1
2	3347	48.400451525779	1
2	3367	48.600451525779	1
2	3379	48.800451525779	1
2	3391	49.000451525779	1
2	3407	49.200451525779	1
2	3421	49.400451525779	1
2	3439	49.600451525779	1
2	3455	49.800451525779	1
2	3467	50.000451525779	1
2	3487	50.200451525779	1
2	3505	50.400451525779	1
2	3515	50.600451525779	1
2	3529	50.800451525779	1
2	3543	51.000451525779	1
2	3557	51.200451525779	1
2	3573	51.400451525779	1
2	3587	51.600451525779	1
2	3599	51.800451525779	1
2	3613	52.000451525779	1
2	3627	52.200451525779	1
2	3651	52.400451525779	1
2	3663	52.600451525779	1
2	3677	52.800451525779	1
2	3689	53.000451525779	1
2	3703	53.200451525779	1
2	3713	53.400451525779	1
2	3723	53.600451525779	1
2	3739	53.800451525779	1
2	3757	54.000451525779	1
2	3771	54.200451525779	1
2	3781	54.400451525779	1
2	3793	54.600451525779	1
2	3805	54.800451525779	1
2	3823	55.000451525779	1
2	3833	55.200451525779	1
2	3847	55.400451525779	1
2	3859	55.600451525779	1
2	3871	55.800451525779	1
2	3885	56.000451525779	1
2	3895	56.200451525779	1
2	3909	56.400451525779	1
2	3921	56.600451525779	1
2	3935	56.800451525779	1
2	3947	57.000451525779	1
2	3963	57.200451525779	1
2	3975	57.400451525779	1
2	3989	57.600451525779	1
2	4003	57.800451525779	1
2	4015	58.000451525779	1
2	4027	58.200451525779	1
2	4039	58.400451525779	1
2	4057	58.608610483143	1
2	4065	58.808610483143	1
3	1	0.079587450457	1
3	4	0.169443489305	1
3	14	0.29503656511	1
3	24	0.480996986317	1
3	29	0.573319299464	1
3	40	0.768473833052	1
3	45	0.84719394705	1
3	56	1.03509035247	1
3	63	1.090195201137	1
3	68	1.187895843776	1
3	76	1.291711773842	1
3	82	1.340224590214	1
3	84	1.397776509902	1
3	86	1.433092423816	1
3	102	1.65544486602	1
3	104	1.661283332929	1
3	122	1.992774560922	1
3	125	2.024610175006	1
3	129	2.072970385501	1
3	136	2.137915020326	1
3	148	2.294804632088	1
3	154	2.46202575212	1
3	162	2.537293163451	1
3	168	2.602681420173	1
3	172	2.686624705463	1
3	178	2.736511906365	1
3	194	2.99633731495	1
3	204	3.177174241377	1
3	207	3.184542776924	1
3	211	3.225700576548	1
3	213	3.23481667916	1
3	220	3.339277929991	1
3	222	3.341320488831	1
3	228	3.387245302557	1
3	236	3.565994068901	1
3	258	3.881011061769	1
3	264	4.031589487633	1
3	266	4.046712572999	1
3	278	4.250743998793	1
3	290	4.454833220384	1
3	304	4.839355407298	1
3	309	4.903526324566	1
3	318	5.064050280272	1
3	328	5.225450487761	1
3	335	5.287343433724	1
3	340	5.360839875843	1
3	348	5.512493473242	1
3	358	5.626087367413	1
3	361	5.638674808357	1
3	370	5.766197578579	1
3	376	5.868340766014	1
3	384	5.955572885518	1
3	386	5.971045853568	1
3	392	6.048129319415	1
3	410	6.337571367214	1
3	418	6.479707835223	1
3	425	6.553490564399	1
3	427	6.564685180462	1
3	432	6.618241752485	1
3	440	6.682411222688	1
3	442	6.713139257903	1
3	444	6.733759586106	1
3	456	6.882585068681	1
3	462	7.016114087143	1
3	464	7.077022329461	1
3	472	7.101427178535	1
3	478	7.185460649096	1
3	480	7.199988451825	1
3	482	7.201885308745	1
3	484	7.241062389813	1
3	492	7.33720048372	1
3	494	7.353414132665	1
3	500	7.448113800382	1
3	502	7.473257993589	1
3	510	7.569212791326	1
3	516	7.618068496257	1
3	534	7.905859998385	1
3	546	8.138751335806	1
3	552	8.253265231276	1
3	560	8.313039838958	1
3	562	8.357591688463	1
3	568	8.452541146813	1
3	576	8.509994387487	1
3	588	8.742629493656	1
3	594	8.862240273602	1
3	596	8.87269639618	1
3	598	8.878907925227	1
3	620	9.228929293672	1
3	628	9.338820540427	1
3	634	9.444703953576	1
3	642	9.555763698145	1
3	644	9.574506304747	1
3	650	9.598126975355	1
3	652	9.642467378217	1
3	654	9.65627024706	1
3	666	9.795174516039	1
3	668	9.833070712467	1
3	676	9.926676868444	1
3	678	9.971887074466	1
3	684	10.011198330196	1
3	692	10.095641109549	1
3	694	10.09955942519	1
3	696	10.157291856271	1
3	702	10.257878956788	1
3	730	10.703328641406	1
3	746	11.022623305611	1
3	748	11.033386816427	1
3	756	11.139169457762	1
3	758	11.16259960964	1
3	764	11.263401534182	1
3	772	11.280992888725	1
3	798	11.817002923749	1
3	806	11.922877195258	1
3	812	12.010068780621	1
3	814	12.039276833948	1
3	822	12.092783301656	1
3	824	12.155577459755	1
3	830	12.219955559915	1
3	832	12.247983260763	1
3	840	12.34566966817	1
3	842	12.362982413785	1
3	848	12.404232536777	1
3	850	12.415928077756	1
3	858	12.528244907909	1
3	864	12.635052127624	1
3	866	12.673207711961	1
3	874	12.688078938886	1
3	880	12.838742472213	1
3	882	12.860630531864	1
3	900	13.159349521049	1
3	906	13.205350916823	1
3	914	13.313977854911	1
3	926	13.486011020683	1
3	928	13.487377478526	1
3	930	13.497591966678	1
3	936	13.595102160094	1
3	944	13.777084052022	1
3	956	13.889065488597	1
3	958	13.899168966128	1
3	974	14.256527803362	1
3	996	14.63143094932	1
3	1008	14.841963079399	1
3	1016	14.905196739039	1
3	1018	14.976455098372	1
3	1040	15.352647826822	1
3	1042	15.358380519464	1
3	1048	15.451228369154	1
3	1056	15.511223057818	1
3	1062	15.645647585033	1
3	1064	15.647666597848	1
3	1066	15.651664227754	1
3	1074	15.709952066641	1
3	1076	15.743193090737	1
3	1098	16.132350103022	1
3	1100	16.145155779553	1
3	1106	16.189697725745	1
3	1108	16.224815334683	1
3	1116	16.290379963119	1
3	1118	16.303018826762	1
3	1124	16.419706179417	1
3	1126	16.457976274303	1
3	1138	16.670399994003	1
3	1146	16.723888431579	1
3	1158	16.974279609888	1
3	1164	16.980909350036	1
3	1166	17.005348894844	1
3	1174	17.123267847551	1
3	1180	17.206552199158	1
3	1188	17.290161952355	1
3	1200	17.490486004606	1
3	1202	17.521327488616	1
3	1208	17.592452282338	1
3	1210	17.666528177383	1
3	1228	17.915086413081	1
3	1230	17.924951443923	1
3	1242	18.178981894719	1
3	1248	18.264771458826	1
3	1250	18.27344850706	1
3	1268	18.538374099928	1
3	1270	18.570908141481	1
3	1276	18.609264162891	1
3	1278	18.610204237957	1
3	1286	18.720288828966	1
3	1298	18.905021594066	1
3	1300	18.919154665422	1
3	1306	19.02333273084	1
3	1314	19.149326111851	1
3	1326	19.333454359	1
3	1328	19.367619775703	1
3	1334	19.398371548079	1
3	1336	19.418606591936	1
3	1338	19.469326604262	1
3	1346	19.557639508458	1
3	1352	19.638119248438	1
3	1354	19.640150494318	1
3	1356	19.658175719516	1
3	1368	19.834749826757	1
3	1376	19.880922916361	1
3	1378	19.88139357041	1
3	1380	19.897227721033	1
3	1386	20.01049113523	1
3	1394	20.094799438445	1
3	1396	20.12627160453	1
3	1402	20.247922469874	1
3	1414	20.380798257249	1
3	1416	20.414832931073	1
3	1434	20.742347248844	1
3	1440	20.799137664192	1
3	1442	20.827739761443	1
3	1450	20.968842202372	1
3	1456	21.054681499155	1
3	1464	21.105115879814	1
3	1470	21.194774966893	1
3	1482	21.421148324479	1
3	1490	21.506070405635	1
3	1496	21.607936278637	1
3	1498	21.633178277926	1
3	1510	21.855328967773	1
3	1528	22.160557133461	1
3	1534	22.274517929814	1
3	1542	22.333780332559	1
3	1548	22.393418271992	1
3	1560	22.580764259978	1
3	1578	22.965064918302	1
3	1590	23.085288775027	1
3	1592	23.097641439763	1
3	1594	23.13294345309	1
3	1600	23.278625308946	1
3	1612	23.446717529401	1
3	1620	23.499789779063	1
3	1622	23.550291653838	1
3	1628	23.662819855522	1
3	1640	23.875769795129	1
3	1648	23.904510842736	1
3	1654	23.991564425369	1
3	1656	24.02913830961	1
3	1668	24.242621354608	1
3	1686	24.579058399913	1
3	1698	24.696996693277	1
3	1704	24.785782834321	1
3	1712	24.914973761201	1
3	1718	25.022757249615	1
3	1726	25.092337195705	1
3	1728	25.168523972835	1
3	1748	25.481070808601	1
3	1751	25.507276532769	1
3	1756	25.610556233834	1
3	1758	25.66078731366	1
3	1766	25.715926912673	1
3	1772	25.812372269222	1
3	1780	25.905612557263	1
3	1782	25.970023028095	1
3	1784	25.97196100623	1
3	1790	26.035473777793	1
3	1792	26.07136649938	1
3	1804	26.197270851106	1
3	1812	26.305202870972	1
3	1814	26.33916934423	1
3	1816	26.3734293067	1
3	1822	26.421792875359	1
3	1830	26.518030380936	1
3	1836	26.65632830159	1
3	1844	26.712324408597	1
3	1856	26.923069169092	1
3	1858	26.937626566937	1
3	1860	26.948481276786	1
3	1866	26.983903690011	1
3	1868	26.993595965469	1
3	1870	27.077984812728	1
3	1878	27.121687614105	1
3	1884	27.211060521936	1
3	1892	27.291315720512	1
3	1894	27.376723694076	1
3	1896	27.380144035912	1
3	1908	27.48604497445	1
3	1924	27.833298522378	1
3	1932	27.938883483244	1
3	1934	27.977596492459	1
3	1940	28.034057542571	1
3	1942	28.059065692069	1
3	1960	28.285929091338	1
3	1962	28.301158453863	1
3	1964	28.346975742259	1
3	1966	28.357207803744	1
3	1972	28.414453958887	1
3	1994	28.828234934938	1
3	2006	29.050726400661	1
3	2010	29.080882991983	1
3	2020	29.244972749776	1
3	2028	29.321980435731	1
3	2034	29.443682385265	1
3	2042	29.503089735097	1
3	2044	29.51365099946	1
3	2046	29.52413918302	1
3	2058	29.776067396028	1
3	2064	29.819501961622	1
3	2072	29.944762714113	1
3	2078	30.008108975885	1
3	2116	30.684648027879	1
3	2122	30.868621306387	1
3	2130	30.884808315058	1
3	2142	31.119826044033	1
3	2154	31.322416925743	1
3	2157	31.326245217031	1
3	2159	31.343977774546	1
3	2163	31.414969567268	1
3	2170	31.51056620966	1
3	2176	31.528820069848	1
3	2178	31.542038440809	1
3	2186	31.69302078637	1
3	2198	31.881413675029	1
3	2210	32.081612324582	1
3	2220	32.246284234715	1
3	2224	32.299284522529	1
3	2230	32.383472618702	1
3	2232	32.398551719721	1
3	2238	32.45083872273	1
3	2240	32.454217401285	1
3	2242	32.461384939716	1
3	2264	32.866369623596	1
3	2272	32.985913480224	1
3	2278	33.032640736865	1
3	2282	33.09307064405	1
3	2288	33.147556356864	1
3	2294	33.275589777245	1
3	2298	33.280781032463	1
3	2310	33.482058306084	1
3	2316	33.527549490563	1
3	2334	33.898545549753	1
3	2336	33.900222326352	1
3	2348	34.093880050101	1
3	2350	34.120112981018	1
3	2352	34.12129130421	1
3	2362	34.266070712409	1
3	2366	34.310695994461	1
3	2382	34.599157169671	1
3	2394	34.730087006073	1
3	2402	34.868716141275	1
3	2407	34.887545638797	1
3	2409	34.929006893063	1
3	2416	35.002620003062	1
3	2422	35.069866054745	1
3	2424	35.075453060034	1
3	2428	35.116850952301	1
3	2430	35.139164873111	1
3	2432	35.158947823857	1
3	2434	35.160817370899	1
3	2440	35.179569266019	1
3	2448	35.33741053823	1
3	2454	35.399670272628	1
3	2456	35.425020843142	1
3	2468	35.632623949186	1
3	2474	35.674989659322	1
3	2488	35.963444088163	1
3	2504	36.226665974418	1
3	2512	36.32037984619	1
3	2518	36.442259526524	1
3	2526	36.533055929256	1
3	2528	36.536291609721	1
3	2540	36.689374732348	1
3	2542	36.707370466503	1
3	2548	36.776690443457	1
3	2554	36.873838659266	1
3	2556	36.879006949846	1
3	2560	36.965099313514	1
3	2572	37.085196404168	1
3	2574	37.112363211202	1
3	2600	37.600276500001	1
3	2616	37.872411325592	1
3	2620	37.903508106089	1
3	2626	37.998691076843	1
3	2634	38.112350726369	1
3	2640	38.189058691826	1
3	2652	38.388775888575	1
3	2658	38.477913746266	1
3	2666	38.616881452644	1
3	2674	38.74785998978	1
3	2690	39.081653423165	1
3	2693	39.119042072755	1
3	2698	39.199840078095	1
3	2700	39.250626590364	1
3	2702	39.274501877649	1
3	2710	39.298054334991	1
3	2712	39.323214196302	1
3	2714	39.34381740115	1
3	2716	39.36850332803	1
3	2732	39.65741088722	1
3	2740	39.741708764761	1
3	2746	39.876243508084	1
3	2754	39.936411406736	1
3	2760	40.0038358637	1
3	2778	40.355283731754	1
3	2780	40.381085008148	1
3	2792	40.495198798434	1
3	2794	40.524549563626	1
3	2796	40.533464992626	1
3	2798	40.539443088918	1
3	2800	40.54525032513	1
3	2806	40.602240081661	1
3	2808	40.66915145403	1
3	2816	40.706518433469	1
3	2828	40.919385442922	1
3	2834	41.038571253287	1
3	2856	41.41324071467	1
3	2858	41.460682343703	1
3	2866	41.55682630086	1
3	2868	41.576623074393	1
3	2874	41.654820646481	1
3	2876	41.657319481812	1
3	2888	41.8501554955	1
3	2890	41.857117262607	1
3	2902	41.993310435038	1
3	2910	42.107064285592	1
3	2912	42.172187358784	1
3	2918	42.232645480618	1
3	2926	42.345681035209	1
3	2932	42.422593015319	1
3	2940	42.51599904858	1
3	2952	42.742983050158	1
3	2958	42.868403377167	1
3	2986	43.332368629804	1
3	2992	43.395761631743	1
3	2994	43.420210733947	1
3	2998	43.481094025321	1
3	3008	43.589884468682	1
3	3020	43.826776285766	1
3	3022	43.857336775947	1
3	3024	43.872096379236	1
3	3026	43.874183101097	1
3	3034	43.900218242252	1
3	3040	44.042256587811	1
3	3052	44.255612916558	1
3	3060	44.294181685963	1
3	3072	44.528966062106	1
3	3074	44.577329900855	1
3	3082	44.681114908404	1
3	3088	44.769865101252	1
3	3094	44.809122404071	1
3	3106	44.986936737754	1
3	3108	45.060273505071	1
3	3116	45.159423934361	1
3	3118	45.159429469551	1
3	3130	45.365511593639	1
3	3136	45.402887923021	1
3	3138	45.434845388508	1
3	3146	45.490262471413	1
3	3152	45.650234415597	1
3	3164	45.866810783684	1
3	3172	45.887345560558	1
3	3178	46.001251325625	1
3	3196	46.306569792584	1
3	3198	46.367474253855	1
3	3210	46.483785582198	1
3	3212	46.549835890173	1
3	3214	46.57410773954	1
3	3226	46.729574033321	1
3	3242	47.024022061063	1
3	3245	47.050086074001	1
3	3254	47.181336873298	1
3	3266	47.393611538692	1
3	3269	47.422906684541	1
3	3273	47.460549619693	1
3	3277	47.484541971637	1
3	3296	47.800251525779	1
3	3299	47.873274292303	1
3	3308	47.937093152862	1
3	3310	47.939692927381	1
3	3316	48.064028005176	1
3	3320	48.087280507014	1
3	3326	48.103967971137	1
3	3328	48.159251808202	1
3	3336	48.290349045018	1
3	3342	48.337216692616	1
3	3348	48.441137256274	1
3	3356	48.50342018725	1
3	3358	48.527612151727	1
3	3360	48.560133753525	1
3	3362	48.580769552885	1
3	3368	48.669148118488	1
3	3380	48.833955735804	1
3	3392	49.033359655932	1
3	3400	49.170827651312	1
3	3402	49.183330910304	1
3	3410	49.295676960259	1
3	3416	49.368529344532	1
3	3422	49.400949255881	1
3	3424	49.415113459361	1
3	3426	49.434339603445	1
3	3434	49.560520870794	1
3	3442	49.682420805312	1
3	3448	49.732848798637	1
3	3450	49.795052490545	1
3	3456	49.87839031461	1
3	3468	50.061916654904	1
3	3472	50.082162531274	1
3	3478	50.105086963795	1
3	3480	50.120734540833	1
3	3482	50.138761970791	1
3	3488	50.205716029877	1
3	3490	50.219050092204	1
3	3492	50.262995631253	1
3	3500	50.391038066651	1
3	3516	50.673101661493	1
3	3518	50.676194290649	1
3	3530	50.821149768292	1
3	3538	50.958584069734	1
3	3546	51.096680379301	1
3	3552	51.106397147138	1
3	3564	51.340446343204	1
3	3566	51.364966152468	1
3	3568	51.373677010794	1
3	3580	51.512008657409	1
3	3582	51.592347833676	1
3	3594	51.723910459506	1
3	3600	51.811731967378	1
3	3602	51.816400741742	1
3	3620	52.143250381824	1
3	3622	52.16671596675	1
3	3628	52.201267925121	1
3	3630	52.235083396605	1
3	3632	52.262636190309	1
3	3640	52.375728038228	1
3	3642	52.386296755638	1
3	3644	52.392808042117	1
3	3646	52.394464651559	1
3	3652	52.475578753782	1
3	3670	52.740834605334	1
3	3672	52.741762907772	1
3	3678	52.852603883193	1
3	3690	53.031602843641	1
3	3698	53.185385715089	1
3	3724	53.600982824645	1
3	3726	53.634073812763	1
3	3734	53.755642860099	1
3	3740	53.843930914595	1
3	3742	53.863975134104	1
3	3744	53.870584335173	1
3	3752	53.942408983184	1
3	3758	54.008889758139	1
3	3762	54.095746331286	1
3	3782	54.475148709595	1
3	3794	54.630049877511	1
3	3806	54.839205534773	1
3	3814	54.9324667203	1
3	3816	54.973739706973	1
3	3818	54.998381289194	1
3	3840	55.324273386912	1
3	3842	55.385001315774	1
3	3848	55.411359027058	1
3	3860	55.622447904496	1
3	3878	55.920667972043	1
3	3880	55.988448172249	1
3	3896	56.272112191587	1
3	3904	56.397835891144	1
3	3916	56.558381767451	1
3	3922	56.624966016115	1
3	3930	56.724512380452	1
3	3936	56.847800426755	1
3	3948	57.055176573065	1
3	3956	57.12412002685	1
3	3958	57.158795357229	1
3	3970	57.344938521527	1
3	3982	57.533948691337	1
3	3984	57.555558312996	1
3	3990	57.651759505655	1
3	3998	57.80018375392	1
3	4004	57.801516278403	1
3	4022	58.167482011479	1
3	4028	58.210135592683	1
3	4040	58.408410483143	1
3	4043	58.424443892592	1
3	4052	58.576050785575	1
3	4068	58.976845751062	1
3	4080	59.397031693687	1
3	4083	59.462111427923	1
3	4094	59.602178997619	1
3	4097	59.670973345465	1
3	4099	59.671378977597	1
3	4108	59.773397686392	1
3	4114	59.804797476198	1
3	4116	59.850776607976	1
4	2	0.079587450457	1
4	5	0.169443489305	1
4	15	0.29503656511	1
4	25	0.480996986317	1
4	30	0.573319299464	1
4	41	0.768473833052	1
4	46	0.84719394705	1
4	57	1.03509035247	1
4	64	1.090195201137	1
4	69	1.187895843776	1
4	77	1.291711773842	1
4	83	1.340224590214	1
4	85	1.397776509902	2
4	87	1.433092423816	3
4	103	1.65544486602	1
4	105	1.661283332929	2
4	123	1.992774560922	1
4	126	2.024610175006	1
4	130	2.072970385501	2
4	137	2.137915020326	2
4	149	2.294804632088	1
4	155	2.46202575212	1
4	163	2.537293163451	1
4	169	2.602681420173	1
4	173	2.686624705463	2
4	179	2.736511906365	2
4	195	2.99633731495	1
4	205	3.177174241377	1
4	208	3.184542776924	1
4	212	3.225700576548	2
4	214	3.23481667916	3
4	221	3.339277929991	3
4	223	3.341320488831	4
4	229	3.387245302557	4
4	237	3.565994068901	4
4	259	3.881011061769	1
4	265	4.031589487633	1
4	267	4.046712572999	2
4	279	4.250743998793	1
4	291	4.454833220384	1
4	305	4.839355407298	1
4	310	4.903526324566	1
4	319	5.064050280272	1
4	329	5.225450487761	1
4	336	5.287343433724	1
4	341	5.360839875843	1
4	349	5.512493473242	1
4	359	5.626087367413	1
4	362	5.638674808357	1
4	371	5.766197578579	1
4	377	5.868340766014	1
4	385	5.955572885518	1
4	387	5.971045853568	2
4	393	6.048129319415	2
4	411	6.337571367214	1
4	419	6.479707835223	1
4	426	6.553490564399	1
4	428	6.564685180462	2
4	433	6.618241752485	2
4	441	6.682411222688	2
4	443	6.713139257903	3
4	445	6.733759586106	4
4	457	6.882585068681	3
4	463	7.016114087143	3
4	465	7.077022329461	4
4	473	7.101427178535	4
4	479	7.185460649096	4
4	481	7.199988451825	5
4	483	7.201885308745	6
4	485	7.241062389813	7
4	493	7.33720048372	7
4	495	7.353414132665	8
4	501	7.448113800382	8
4	503	7.473257993589	9
4	511	7.569212791326	9
4	517	7.618068496257	9
4	535	7.905859998385	7
4	547	8.138751335806	6
4	553	8.253265231276	6
4	561	8.313039838958	6
4	563	8.357591688463	7
4	569	8.452541146813	7
4	577	8.509994387487	7
4	589	8.742629493656	6
4	595	8.862240273602	6
4	597	8.87269639618	7
4	599	8.878907925227	8
4	621	9.228929293672	5
4	629	9.338820540427	5
4	635	9.444703953576	5
4	643	9.555763698145	5
4	645	9.574506304747	6
4	651	9.598126975355	6
4	653	9.642467378217	7
4	655	9.65627024706	8
4	667	9.795174516039	7
4	669	9.833070712467	8
4	677	9.926676868444	8
4	679	9.971887074466	9
4	685	10.011198330196	9
4	693	10.095641109549	9
4	695	10.09955942519	10
4	697	10.157291856271	11
4	703	10.257878956788	11
4	731	10.703328641406	7
4	747	11.022623305611	5
4	749	11.033386816427	6
4	757	11.139169457762	6
4	759	11.16259960964	7
4	765	11.263401534182	7
4	773	11.280992888725	7
4	799	11.817002923749	3
4	807	11.922877195258	3
4	813	12.010068780621	3
4	815	12.039276833948	4
4	823	12.092783301656	4
4	825	12.155577459755	5
4	831	12.219955559915	5
4	833	12.247983260763	6
4	841	12.34566966817	6
4	843	12.362982413785	7
4	849	12.404232536777	7
4	851	12.415928077756	8
4	859	12.528244907909	8
4	865	12.635052127624	8
4	867	12.673207711961	9
4	875	12.688078938886	9
4	881	12.838742472213	9
4	883	12.860630531864	10
4	901	13.159349521049	8
4	907	13.205350916823	8
4	915	13.313977854911	8
4	927	13.486011020683	7
4	929	13.487377478526	8
4	931	13.497591966678	9
4	937	13.595102160094	9
4	945	13.777084052022	9
4	957	13.889065488597	8
4	959	13.899168966128	9
4	975	14.256527803362	7
4	997	14.63143094932	4
4	1009	14.841963079399	3
4	1017	14.905196739039	3
4	1019	14.976455098372	4
4	1041	15.352647826822	1
4	1043	15.358380519464	2
4	1049	15.451228369154	2
4	1057	15.511223057818	2
4	1063	15.645647585033	2
4	1065	15.647666597848	3
4	1067	15.651664227754	4
4	1075	15.709952066641	4
4	1077	15.743193090737	5
4	1099	16.132350103022	2
4	1101	16.145155779553	3
4	1107	16.189697725745	3
4	1109	16.224815334683	4
4	1117	16.290379963119	4
4	1119	16.303018826762	5
4	1125	16.419706179417	5
4	1127	16.457976274303	6
4	1139	16.670399994003	5
4	1147	16.723888431579	5
4	1159	16.974279609888	4
4	1165	16.980909350036	4
4	1167	17.005348894844	5
4	1175	17.123267847551	5
4	1181	17.206552199158	5
4	1189	17.290161952355	5
4	1201	17.490486004606	4
4	1203	17.521327488616	5
4	1209	17.592452282338	5
4	1211	17.666528177383	6
4	1229	17.915086413081	4
4	1231	17.924951443923	5
4	1243	18.178981894719	4
4	1249	18.264771458826	4
4	1251	18.27344850706	5
4	1269	18.538374099928	3
4	1271	18.570908141481	4
4	1277	18.609264162891	4
4	1279	18.610204237957	5
4	1287	18.720288828966	5
4	1299	18.905021594066	4
4	1301	18.919154665422	5
4	1307	19.02333273084	5
4	1315	19.149326111851	5
4	1327	19.333454359	4
4	1329	19.367619775703	5
4	1335	19.398371548079	5
4	1337	19.418606591936	6
4	1339	19.469326604262	7
4	1347	19.557639508458	7
4	1353	19.638119248438	7
4	1355	19.640150494318	8
4	1357	19.658175719516	9
4	1369	19.834749826757	8
4	1377	19.880922916361	8
4	1379	19.88139357041	9
4	1381	19.897227721033	10
4	1387	20.01049113523	10
4	1395	20.094799438445	10
4	1397	20.12627160453	11
4	1403	20.247922469874	11
4	1415	20.380798257249	10
4	1417	20.414832931073	11
4	1435	20.742347248844	9
4	1441	20.799137664192	9
4	1443	20.827739761443	10
4	1451	20.968842202372	10
4	1457	21.054681499155	10
4	1465	21.105115879814	10
4	1471	21.194774966893	10
4	1483	21.421148324479	9
4	1491	21.506070405635	9
4	1497	21.607936278637	9
4	1499	21.633178277926	10
4	1511	21.855328967773	9
4	1529	22.160557133461	7
4	1535	22.274517929814	7
4	1543	22.333780332559	7
4	1549	22.393418271992	7
4	1561	22.580764259978	6
4	1579	22.965064918302	4
4	1591	23.085288775027	3
4	1593	23.097641439763	4
4	1595	23.13294345309	5
4	1601	23.278625308946	5
4	1613	23.446717529401	4
4	1621	23.499789779063	4
4	1623	23.550291653838	5
4	1629	23.662819855522	5
4	1641	23.875769795129	4
4	1649	23.904510842736	4
4	1655	23.991564425369	4
4	1657	24.02913830961	5
4	1669	24.242621354608	4
4	1687	24.579058399913	2
4	1699	24.696996693277	1
4	1705	24.785782834321	1
4	1713	24.914973761201	1
4	1719	25.022757249615	1
4	1727	25.092337195705	1
4	1729	25.168523972835	2
4	1749	25.481070808601	1
4	1752	25.507276532769	1
4	1757	25.610556233834	1
4	1759	25.66078731366	2
4	1767	25.715926912673	2
4	1773	25.812372269222	2
4	1781	25.905612557263	2
4	1783	25.970023028095	3
4	1785	25.97196100623	4
4	1791	26.035473777793	4
4	1793	26.07136649938	5
4	1805	26.197270851106	4
4	1813	26.305202870972	4
4	1815	26.33916934423	5
4	1817	26.3734293067	6
4	1823	26.421792875359	6
4	1831	26.518030380936	6
4	1837	26.65632830159	6
4	1845	26.712324408597	6
4	1857	26.923069169092	5
4	1859	26.937626566937	6
4	1861	26.948481276786	7
4	1867	26.983903690011	7
4	1869	26.993595965469	8
4	1871	27.077984812728	9
4	1879	27.121687614105	9
4	1885	27.211060521936	9
4	1893	27.291315720512	9
4	1895	27.376723694076	10
4	1897	27.380144035912	11
4	1909	27.48604497445	10
4	1925	27.833298522378	8
4	1933	27.938883483244	8
4	1935	27.977596492459	9
4	1941	28.034057542571	9
4	1943	28.059065692069	10
4	1961	28.285929091338	8
4	1963	28.301158453863	9
4	1965	28.346975742259	10
4	1967	28.357207803744	11
4	1973	28.414453958887	11
4	1995	28.828234934938	8
4	2007	29.050726400661	7
4	2011	29.080882991983	8
4	2021	29.244972749776	7
4	2029	29.321980435731	7
4	2035	29.443682385265	7
4	2043	29.503089735097	7
4	2045	29.51365099946	8
4	2047	29.52413918302	9
4	2059	29.776067396028	8
4	2065	29.819501961622	8
4	2073	29.944762714113	8
4	2079	30.008108975885	8
4	2117	30.684648027879	2
4	2123	30.868621306387	2
4	2131	30.884808315058	2
4	2143	31.119826044033	1
4	2155	31.322416925743	1
4	2158	31.326245217031	1
4	2160	31.343977774546	2
4	2164	31.414969567268	3
4	2171	31.51056620966	3
4	2177	31.528820069848	3
4	2179	31.542038440809	4
4	2187	31.69302078637	4
4	2199	31.881413675029	3
4	2211	32.081612324582	2
4	2221	32.246284234715	1
4	2225	32.299284522529	2
4	2231	32.383472618702	2
4	2233	32.398551719721	3
4	2239	32.45083872273	3
4	2241	32.454217401285	4
4	2243	32.461384939716	5
4	2265	32.866369623596	2
4	2273	32.985913480224	2
4	2279	33.032640736865	2
4	2283	33.09307064405	3
4	2289	33.147556356864	3
4	2295	33.275589777245	3
4	2299	33.280781032463	4
4	2311	33.482058306084	3
4	2317	33.527549490563	3
4	2335	33.898545549753	1
4	2337	33.900222326352	2
4	2349	34.093880050101	1
4	2351	34.120112981018	2
4	2353	34.12129130421	3
4	2363	34.266070712409	2
4	2367	34.310695994461	3
4	2383	34.599157169671	1
4	2395	34.730087006073	1
4	2403	34.868716141275	1
4	2408	34.887545638797	1
4	2410	34.929006893063	2
4	2417	35.002620003062	2
4	2423	35.069866054745	2
4	2425	35.075453060034	3
4	2429	35.116850952301	4
4	2431	35.139164873111	5
4	2433	35.158947823857	6
4	2435	35.160817370899	7
4	2441	35.179569266019	7
4	2449	35.33741053823	7
4	2455	35.399670272628	7
4	2457	35.425020843142	8
4	2469	35.632623949186	7
4	2475	35.674989659322	7
4	2489	35.963444088163	6
4	2505	36.226665974418	4
4	2513	36.32037984619	4
4	2519	36.442259526524	4
4	2527	36.533055929256	4
4	2529	36.536291609721	5
4	2541	36.689374732348	4
4	2543	36.707370466503	5
4	2549	36.776690443457	5
4	2555	36.873838659266	5
4	2557	36.879006949846	6
4	2561	36.965099313514	7
4	2573	37.085196404168	6
4	2575	37.112363211202	7
4	2601	37.600276500001	3
4	2617	37.872411325592	1
4	2621	37.903508106089	2
4	2627	37.998691076843	2
4	2635	38.112350726369	2
4	2641	38.189058691826	2
4	2653	38.388775888575	1
4	2659	38.477913746266	1
4	2667	38.616881452644	1
4	2675	38.74785998978	1
4	2691	39.081653423165	1
4	2694	39.119042072755	1
4	2699	39.199840078095	1
4	2701	39.250626590364	2
4	2703	39.274501877649	3
4	2711	39.298054334991	3
4	2713	39.323214196302	4
4	2715	39.34381740115	5
4	2717	39.36850332803	6
4	2733	39.65741088722	4
4	2741	39.741708764761	4
4	2747	39.876243508084	4
4	2755	39.936411406736	4
4	2761	40.0038358637	4
4	2779	40.355283731754	2
4	2781	40.381085008148	3
4	2793	40.495198798434	2
4	2795	40.524549563626	3
4	2797	40.533464992626	4
4	2799	40.539443088918	5
4	2801	40.54525032513	6
4	2807	40.602240081661	6
4	2809	40.66915145403	7
4	2817	40.706518433469	7
4	2829	40.919385442922	6
4	2835	41.038571253287	6
4	2857	41.41324071467	3
4	2859	41.460682343703	4
4	2867	41.55682630086	4
4	2869	41.576623074393	5
4	2875	41.654820646481	5
4	2877	41.657319481812	6
4	2889	41.8501554955	5
4	2891	41.857117262607	6
4	2903	41.993310435038	5
4	2911	42.107064285592	5
4	2913	42.172187358784	6
4	2919	42.232645480618	6
4	2927	42.345681035209	6
4	2933	42.422593015319	6
4	2941	42.51599904858	6
4	2953	42.742983050158	5
4	2959	42.868403377167	5
4	2987	43.332368629804	1
4	2993	43.395761631743	1
4	2995	43.420210733947	2
4	2999	43.481094025321	3
4	3009	43.589884468682	2
4	3021	43.826776285766	1
4	3023	43.857336775947	2
4	3025	43.872096379236	3
4	3027	43.874183101097	4
4	3035	43.900218242252	4
4	3041	44.042256587811	4
4	3053	44.255612916558	3
4	3061	44.294181685963	3
4	3073	44.528966062106	2
4	3075	44.577329900855	3
4	3083	44.681114908404	3
4	3089	44.769865101252	3
4	3095	44.809122404071	3
4	3107	44.986936737754	2
4	3109	45.060273505071	3
4	3117	45.159423934361	3
4	3119	45.159429469551	4
4	3131	45.365511593639	3
4	3137	45.402887923021	3
4	3139	45.434845388508	4
4	3147	45.490262471413	4
4	3153	45.650234415597	4
4	3165	45.866810783684	3
4	3173	45.887345560558	3
4	3179	46.001251325625	3
4	3197	46.306569792584	1
4	3199	46.367474253855	2
4	3211	46.483785582198	1
4	3213	46.549835890173	2
4	3215	46.57410773954	3
4	3227	46.729574033321	2
4	3243	47.024022061063	1
4	3246	47.050086074001	1
4	3255	47.181336873298	1
4	3267	47.393611538692	1
4	3270	47.422906684541	1
4	3274	47.460549619693	2
4	3278	47.484541971637	3
4	3297	47.800251525779	1
4	3300	47.873274292303	1
4	3309	47.937093152862	1
4	3311	47.939692927381	2
4	3317	48.064028005176	2
4	3321	48.087280507014	3
4	3327	48.103967971137	3
4	3329	48.159251808202	4
4	3337	48.290349045018	4
4	3343	48.337216692616	4
4	3349	48.441137256274	4
4	3357	48.50342018725	4
4	3359	48.527612151727	5
4	3361	48.560133753525	6
4	3363	48.580769552885	7
4	3369	48.669148118488	7
4	3381	48.833955735804	6
4	3393	49.033359655932	5
4	3401	49.170827651312	5
4	3403	49.183330910304	6
4	3411	49.295676960259	6
4	3417	49.368529344532	6
4	3423	49.400949255881	6
4	3425	49.415113459361	7
4	3427	49.434339603445	8
4	3435	49.560520870794	8
4	3443	49.682420805312	8
4	3449	49.732848798637	8
4	3451	49.795052490545	9
4	3457	49.87839031461	9
4	3469	50.061916654904	8
4	3473	50.082162531274	9
4	3479	50.105086963795	9
4	3481	50.120734540833	10
4	3483	50.138761970791	11
4	3489	50.205716029877	11
4	3491	50.219050092204	12
4	3493	50.262995631253	13
4	3501	50.391038066651	13
4	3517	50.673101661493	11
4	3519	50.676194290649	12
4	3531	50.821149768292	11
4	3539	50.958584069734	11
4	3547	51.096680379301	11
4	3553	51.106397147138	11
4	3565	51.340446343204	10
4	3567	51.364966152468	11
4	3569	51.373677010794	12
4	3581	51.512008657409	11