version 3
run General-0-20240515-21:17:35-2999
attr configname General
attr datetime 20240515-21:17:35
attr datetimef 20240515-211735
attr experiment General
attr inifile omnetpp.ini
attr iterationvars ""
attr iterationvarsd ""
attr iterationvarsf ""
attr measurement ""
attr network Network
attr processid 2999
attr repetition 0
attr replication #0
attr resultdir results
attr runnumber 0
attr seedset 0
config network Network
config sim-time-limit 200s
config Network.nodeTx.gen.packetByteSize 12500
config Network.nodeTx.gen.generationInterval exponential(0.1)
config Network.queue0.serviceTime exponential(0.001)
config Network.queue0.bufferSize 200
config Network.queue1.serviceTime exponential(0.001)
config Network.queue1.bufferSize 200
config Network.nodeTx.tranTx.bufferSize 200
config Network.nodeTx.tranTx.serviceTime exponential(0.001)
config Network.nodeRx.tranRx.bufferSize 2000000
config Network.nodeTx.tranRx.serviceTime exponential(0.001)

vector 0 Network.nodeTx.tranTx packetDropQueue ETV
vector 1 Network.queue0 "packets drop" ETV
vector 2 Network.queue1 "packets drop" ETV
vector 3 Network.nodeRx.tranRx packetDrop ETV
vector 4 Network.nodeTx.gen PacketGen ETV
vector 5 Network.nodeTx.tranTx bufferSizeQueue ETV
vector 6 Network.queue0 bufferSizeQueue ETV
vector 7 Network.nodeRx.tranRx "buffer size" ETV
vector 8 Network.nodeRx.sink Delay ETV
vector 9 Network.nodeRx.sink PacketUsed ETV
vector 10 Network.queue1 bufferSizeQueue ETV
0	0	0	0
1	0	0	0
2	0	0	0
3	0	0	0
4	1	0.079587450457	1
4	4	0.169443489305	2
4	11	0.29503656511	3
4	21	0.480996986317	4
4	24	0.573319299464	5
4	35	0.768473833052	6
4	41	0.84719394705	7
4	52	1.03509035247	8
4	57	1.090195201137	9
4	64	1.187895843776	10
4	70	1.291711773842	11
4	74	1.340224590214	12
4	79	1.397776509902	13
4	81	1.433092423816	14
4	94	1.65544486602	15
4	96	1.661283332929	16
4	114	1.992774560922	17
4	117	2.024610175006	18
4	119	2.072970385501	19
4	125	2.137915020326	20
4	136	2.294804632088	21
4	143	2.46202575212	22
4	149	2.537293163451	23
4	156	2.602681420173	24
4	160	2.686624705463	25
4	164	2.736511906365	26
4	180	2.99633731495	27
4	187	3.177174241377	28
4	193	3.184542776924	29
4	195	3.225700576548	30
4	197	3.23481667916	31
4	203	3.339277929991	32
4	205	3.341320488831	33
4	212	3.387245302557	34
4	218	3.565994068901	35
4	238	3.881011061769	36
4	245	4.031589487633	37
4	247	4.046712572999	38
4	258	4.250743998793	39
4	269	4.454833220384	40
4	284	4.839355407298	41
4	289	4.903526324566	42
4	298	5.064050280272	43
4	308	5.225450487761	44
4	313	5.287343433724	45
4	317	5.360839875843	46
4	326	5.512493473242	47
4	335	5.626087367413	48
4	338	5.638674808357	49
4	344	5.766197578579	50
4	351	5.868340766014	51
4	357	5.955572885518	52
4	359	5.971045853568	53
4	366	6.048129319415	54
4	381	6.337571367214	55
4	389	6.479707835223	56
4	394	6.553490564399	57
4	396	6.564685180462	58
4	403	6.618241752485	59
4	409	6.682411222688	60
4	411	6.713139257903	61
4	413	6.733759586106	62
4	424	6.882585068681	63
4	431	7.016114087143	64
4	433	7.077022329461	65
4	439	7.101427178535	66
4	446	7.185460649096	67
4	448	7.199988451825	68
4	450	7.201885308745	69
4	452	7.241062389813	70
4	458	7.33720048372	71
4	460	7.353414132665	72
4	467	7.448113800382	73
4	469	7.473257993589	74
4	475	7.569212791326	75
4	482	7.618068496257	76
4	497	7.905859998385	77
4	508	8.138751335806	78
4	515	8.253265231276	79
4	521	8.313039838958	80
4	523	8.357591688463	81
4	530	8.452541146813	82
4	536	8.509994387487	83
4	547	8.742629493656	84
4	554	8.862240273602	85
4	556	8.87269639618	86
4	558	8.878907925227	87
4	578	9.228929293672	88
4	584	9.338820540427	89
4	591	9.444703953576	90
4	597	9.555763698145	91
4	599	9.574506304747	92
4	606	9.598126975355	93
4	608	9.642467378217	94
4	610	9.65627024706	95
4	621	9.795174516039	96
4	623	9.833070712467	97
4	629	9.926676868444	98
4	631	9.971887074466	99
4	638	10.011198330196	100
4	644	10.095641109549	101
4	646	10.09955942519	102
4	648	10.157291856271	103
4	655	10.257878956788	104
4	679	10.703328641406	105
4	695	11.022623305611	106
4	697	11.033386816427	107
4	703	11.139169457762	108
4	705	11.16259960964	109
4	712	11.263401534182	110
4	718	11.280992888725	111
4	743	11.817002923749	112
4	749	11.922877195258	113
4	756	12.010068780621	114
4	758	12.039276833948	115
4	764	12.092783301656	116
4	766	12.155577459755	117
4	773	12.219955559915	118
4	775	12.247983260763	119
4	781	12.34566966817	120
4	783	12.362982413785	121
4	790	12.404232536777	122
4	792	12.415928077756	123
4	798	12.528244907909	124
4	805	12.635052127624	125
4	807	12.673207711961	126
4	813	12.688078938886	127
4	820	12.838742472213	128
4	822	12.860630531864	129
4	837	13.159349521049	130
4	844	13.205350916823	131
4	850	13.313977854911	132
4	861	13.486011020683	133
4	863	13.487377478526	134
4	865	13.497591966678	135
4	872	13.595102160094	136
4	878	13.777084052022	137
4	889	13.889065488597	138
4	891	13.899168966128	139
4	907	14.256527803362	140
4	927	14.63143094932	141
4	938	14.841963079399	142
4	944	14.905196739039	143
4	946	14.976455098372	144
4	966	15.352647826822	145
4	968	15.358380519464	146
4	975	15.451228369154	147
4	981	15.511223057818	148
4	988	15.645647585033	149
4	990	15.647666597848	150
4	992	15.651664227754	151
4	998	15.709952066641	152
4	1000	15.743193090737	153
4	1020	16.132350103022	154
4	1022	16.145155779553	155
4	1029	16.189697725745	156
4	1031	16.224815334683	157
4	1037	16.290379963119	158
4	1039	16.303018826762	159
4	1046	16.419706179417	160
4	1048	16.457976274303	161
4	1059	16.670399994003	162
4	1065	16.723888431579	163
4	1076	16.974279609888	164
4	1083	16.980909350036	165
4	1085	17.005348894844	166
4	1091	17.123267847551	167
4	1098	17.206552199158	168
4	1104	17.290161952355	169
4	1115	17.490486004606	170
4	1117	17.521327488616	171
4	1124	17.592452282338	172
4	1126	17.666528177383	173
4	1141	17.915086413081	174
4	1143	17.924951443923	175
4	1154	18.178981894719	176
4	1161	18.264771458826	177
4	1163	18.27344850706	178
4	1178	18.538374099928	179
4	1180	18.570908141481	180
4	1187	18.609264162891	181
4	1189	18.610204237957	182
4	1195	18.720288828966	183
4	1206	18.905021594066	184
4	1208	18.919154665422	185
4	1215	19.02333273084	186
4	1221	19.149326111851	187
4	1232	19.333454359	188
4	1234	19.367619775703	189
4	1241	19.398371548079	190
4	1243	19.418606591936	191
4	1245	19.469326604262	192
4	1251	19.557639508458	193
4	1258	19.638119248438	194
4	1260	19.640150494318	195
4	1262	19.658175719516	196
4	1273	19.834749826757	197
4	1279	19.880922916361	198
4	1281	19.88139357041	199
4	1283	19.897227721033	200
4	1290	20.01049113523	201
4	1296	20.094799438445	202
4	1298	20.12627160453	203
4	1305	20.247922469874	204
4	1316	20.380798257249	205
4	1318	20.414832931073	206
4	1333	20.742347248844	207
4	1340	20.799137664192	208
4	1342	20.827739761443	209
4	1348	20.968842202372	210
4	1355	21.054681499155	211
4	1361	21.105115879814	212
4	1368	21.194774966893	213
4	1379	21.421148324479	214
4	1385	21.506070405635	215
4	1392	21.607936278637	216
4	1394	21.633178277926	217
4	1405	21.855328967773	218
4	1420	22.160557133461	219
4	1427	22.274517929814	220
4	1433	22.333780332559	221
4	1440	22.393418271992	222
4	1451	22.580764259978	223
4	1466	22.965064918302	224
4	1477	23.085288775027	225
4	1479	23.097641439763	226
4	1481	23.13294345309	227
4	1488	23.278625308946	228
4	1499	23.446717529401	229
4	1505	23.499789779063	230
4	1507	23.550291653838	231
4	1514	23.662819855522	232
4	1525	23.875769795129	233
4	1531	23.904510842736	234
4	1538	23.991564425369	235
4	1540	24.02913830961	236
4	1551	24.242621354608	237
4	1566	24.579058399913	238
4	1577	24.696996693277	239
4	1584	24.785782834321	240
4	1590	24.914973761201	241
4	1597	25.022757249615	242
4	1603	25.092337195705	243
4	1605	25.168523972835	244
4	1623	25.481070808601	245
4	1626	25.507276532769	246
4	1633	25.610556233834	247
4	1635	25.66078731366	248
4	1641	25.715926912673	249
4	1648	25.812372269222	250
4	1654	25.905612557263	251
4	1656	25.970023028095	252
4	1658	25.97196100623	253
4	1665	26.035473777793	254
4	1667	26.07136649938	255
4	1678	26.197270851106	256
4	1684	26.305202870972	257
4	1686	26.33916934423	258
4	1688	26.3734293067	259
4	1695	26.421792875359	260
4	1701	26.518030380936	261
4	1708	26.65632830159	262
4	1714	26.712324408597	263
4	1725	26.923069169092	264
4	1727	26.937626566937	265
4	1729	26.948481276786	266
4	1736	26.983903690011	267
4	1738	26.993595965469	268
4	1740	27.077984812728	269
4	1746	27.121687614105	270
4	1753	27.211060521936	271
4	1759	27.291315720512	272
4	1761	27.376723694076	273
4	1766	27.380144035912	274
4	1774	27.48604497445	275
4	1790	27.833298522378	276
4	1796	27.938883483244	277
4	1798	27.977596492459	278
4	1805	28.034057542571	279
4	1807	28.059065692069	280
4	1822	28.285929091338	281
4	1824	28.301158453863	282
4	1826	28.346975742259	283
4	1828	28.357207803744	284
4	1835	28.414453958887	285
4	1855	28.828234934938	286
4	1866	29.050726400661	287
4	1870	29.080882991983	288
4	1879	29.244972749776	289
4	1885	29.321980435731	290
4	1892	29.443682385265	291
4	1898	29.503089735097	292
4	1900	29.51365099946	293
4	1902	29.52413918302	294
4	1913	29.776067396028	295
4	1920	29.819501961622	296
4	1926	29.944762714113	297
4	1933	30.008108975885	298
4	1966	30.684648027879	299
4	1973	30.868621306387	300
4	1979	30.884808315058	301
4	1990	31.119826044033	302
4	2001	31.322416925743	303
4	2004	31.326245217031	304
4	2006	31.343977774546	305
4	2011	31.414969567268	306
4	2017	31.51056620966	307
4	2021	31.528820069848	308
4	2023	31.542038440809	309
4	2032	31.69302078637	310
4	2043	31.881413675029	311
4	2054	32.081612324582	312
4	2063	32.246284234715	313
4	2067	32.299284522529	314
4	2074	32.383472618702	315
4	2076	32.398551719721	316
4	2080	32.45083872273	317
4	2082	32.454217401285	318
4	2084	32.461384939716	319
4	2104	32.866369623596	320
4	2113	32.985913480224	321
4	2117	33.032640736865	322
4	2121	33.09307064405	323
4	2125	33.147556356864	324
4	2132	33.275589777245	325
4	2136	33.280781032463	326
4	2147	33.482058306084	327
4	2151	33.527549490563	328
4	2169	33.898545549753	329
4	2171	33.900222326352	330
4	2182	34.093880050101	331
4	2184	34.120112981018	332
4	2186	34.12129130421	333
4	2195	34.266070712409	334
4	2199	34.310695994461	335
4	2222	34.599157169671	336
4	2228	34.730087006073	337
4	2234	34.868716141275	338
4	2238	34.887545638797	339
4	2241	34.929006893063	340
4	2246	35.002620003062	341
4	2249	35.069866054745	342
4	2251	35.075453060034	343
4	2255	35.116850952301	344
4	2258	35.139164873111	345
4	2260	35.158947823857	346
4	2262	35.160817370899	347
4	2264	35.179569266019	348
4	2273	35.33741053823	349
4	2278	35.399670272628	350
4	2281	35.425020843142	351
4	2290	35.632623949186	352
4	2292	35.674989659322	353
4	2304	35.963444088163	354
4	2317	36.226665974418	355
4	2321	36.32037984619	356
4	2328	36.442259526524	357
4	2333	36.533055929256	358
4	2335	36.536291609721	359
4	2343	36.689374732348	360
4	2345	36.707370466503	361
4	2348	36.776690443457	362
4	2354	36.873838659266	363
4	2356	36.879006949846	364
4	2361	36.965099313514	365
4	2369	37.085196404168	366
4	2371	37.112363211202	367
4	2391	37.600276500001	368
4	2401	37.872411325592	369
4	2405	37.903508106089	370
4	2411	37.998691076843	371
4	2416	38.112350726369	372
4	2422	38.189058691826	373
4	2431	38.388775888575	374
4	2434	38.477913746266	375
4	2442	38.616881452644	376
4	2448	38.74785998978	377
4	2463	39.081653423165	378
4	2465	39.119042072755	379
4	2471	39.199840078095	380
4	2474	39.250626590364	381
4	2476	39.274501877649	382
4	2480	39.298054334991	383
4	2483	39.323214196302	384
4	2485	39.34381740115	385
4	2487	39.36850332803	386
4	2500	39.65741088722	387
4	2505	39.741708764761	388
4	2511	39.876243508084	389
4	2516	39.936411406736	390
4	2521	40.0038358637	391
4	2534	40.355283731754	392
4	2539	40.381085008148	393
4	2544	40.495198798434	394
4	2547	40.524549563626	395
4	2549	40.533464992626	396
4	2551	40.539443088918	397
4	2553	40.54525032513	398
4	2558	40.602240081661	399
4	2561	40.66915145403	400
4	2565	40.706518433469	401
4	2574	40.919385442922	402
4	2581	41.038571253287	403
4	2596	41.41324071467	404
4	2599	41.460682343703	405
4	2604	41.55682630086	406
4	2606	41.576623074393	407
4	2612	41.654820646481	408
4	2614	41.657319481812	409
4	2623	41.8501554955	410
4	2625	41.857117262607	411
4	2633	41.993310435038	412
4	2638	42.107064285592	413
4	2641	42.172187358784	414
4	2647	42.232645480618	415
4	2652	42.345681035209	416
4	2658	42.422593015319	417
4	2662	42.51599904858	418
4	2672	42.742983050158	419
4	2678	42.868403377167	420
4	2697	43.332368629804	421
4	2702	43.395761631743	422
4	2704	43.420210733947	423
4	2709	43.481094025321	424
4	2715	43.589884468682	425
4	2725	43.826776285766	426
4	2727	43.857336775947	427
4	2729	43.872096379236	428
4	2731	43.874183101097	429
4	2735	43.900218242252	430
4	2742	44.042256587811	431
4	2751	44.255612916558	432
4	2755	44.294181685963	433
4	2765	44.528966062106	434
4	2767	44.577329900855	435
4	2775	44.681114908404	436
4	2778	44.769865101252	437
4	2783	44.809122404071	438
4	2792	44.986936737754	439
4	2795	45.060273505071	440
4	2800	45.159423934361	441
4	2802	45.159429469551	442
4	2811	45.365511593639	443
4	2816	45.402887923021	444
4	2819	45.434845388508	445
4	2823	45.490262471413	446
4	2830	45.650234415597	447
4	2839	45.866810783684	448
4	2843	45.887345560558	449
4	2849	46.001251325625	450
4	2861	46.306569792584	451
4	2864	46.367474253855	452
4	2872	46.483785582198	453
4	2875	46.549835890173	454
4	2877	46.57410773954	455
4	2886	46.729574033321	456
4	2899	47.024022061063	457
4	2901	47.050086074001	458
4	2909	47.181336873298	459
4	2918	47.393611538692	460
4	2921	47.422906684541	461
4	2923	47.460549619693	462
4	2927	47.484541971637	463
4	2940	47.800251525779	464
4	2943	47.873274292303	465
4	2948	47.937093152862	466
4	2950	47.939692927381	467
4	2956	48.064028005176	468
4	2960	48.087280507014	469
4	2962	48.103967971137	470
4	2965	48.159251808202	471
4	2973	48.290349045018	472
4	2976	48.337216692616	473
4	2982	48.441137256274	474
4	2986	48.50342018725	475
4	2989	48.527612151727	476
4	2991	48.560133753525	477
4	2996	48.580769552885	478
4	2999	48.669148118488	479
4	3008	48.833955735804	480
4	3017	49.033359655932	481
4	3022	49.170827651312	482
4	3027	49.183330910304	483
4	3032	49.295676960259	484
4	3035	49.368529344532	485
4	3040	49.400949255881	486
4	3042	49.415113459361	487
4	3045	49.434339603445	488
4	3050	49.560520870794	489
4	3058	49.682420805312	490
4	3061	49.732848798637	491
4	3066	49.795052490545	492
4	3069	49.87839031461	493
4	3078	50.061916654904	494
4	3082	50.082162531274	495
4	3084	50.105086963795	496
4	3086	50.120734540833	497
4	3089	50.138761970791	498
4	3094	50.205716029877	499
4	3096	50.219050092204	500
4	3099	50.262995631253	501
4	3107	50.391038066651	502
4	3117	50.673101661493	503
4	3119	50.676194290649	504
4	3127	50.821149768292	505
4	3133	50.958584069734	506
4	3141	51.096680379301	507
4	3143	51.106397147138	508
4	3153	51.340446343204	509
4	3155	51.364966152468	510
4	3157	51.373677010794	511
4	3165	51.512008657409	512
4	3171	51.592347833676	513
4	3177	51.723910459506	514
4	3182	51.811731967378	515
4	3184	51.816400741742	516
4	3197	52.143250381824	517
4	3199	52.16671596675	518
4	3204	52.201267925121	519
4	3207	52.235083396605	520
4	3209	52.262636190309	521
4	3214	52.375728038228	522
4	3219	52.386296755638	523
4	3221	52.392808042117	524
4	3223	52.394464651559	525
4	3226	52.475578753782	526
4	3238	52.740834605334	527
4	3240	52.741762907772	528
4	3246	52.852603883193	529
4	3255	53.031602843641	530
4	3263	53.185385715089	531
4	3279	53.600982824645	532
4	3282	53.634073812763	533
4	3287	53.755642860099	534
4	3293	53.843930914595	535
4	3295	53.863975134104	536
4	3297	53.870584335173	537
4	3302	53.942408983184	538
4	3307	54.008889758139	539
4	3312	54.095746331286	540
4	3326	54.475148709595	541
5	2	0.079587450457	1
5	5	0.169443489305	1
5	12	0.29503656511	1
5	22	0.480996986317	1
5	25	0.573319299464	1
5	36	0.768473833052	1
5	42	0.84719394705	1
5	53	1.03509035247	1
5	58	1.090195201137	1
5	65	1.187895843776	1
5	71	1.291711773842	1
5	75	1.340224590214	1
5	80	1.397776509902	2
5	82	1.433092423816	3
5	95	1.65544486602	1
5	97	1.661283332929	2
5	115	1.992774560922	1
5	118	2.024610175006	1
5	120	2.072970385501	2
5	126	2.137915020326	2
5	137	2.294804632088	1
5	144	2.46202575212	1
5	150	2.537293163451	1
5	157	2.602681420173	1
5	161	2.686624705463	2
5	165	2.736511906365	2
5	181	2.99633731495	1
5	188	3.177174241377	1
5	194	3.184542776924	1
5	196	3.225700576548	2
5	198	3.23481667916	3
5	204	3.339277929991	3
5	206	3.341320488831	4
5	213	3.387245302557	4
5	219	3.565994068901	4
5	239	3.881011061769	1
5	246	4.031589487633	1
5	248	4.046712572999	2
5	259	4.250743998793	1
5	270	4.454833220384	1
5	285	4.839355407298	1
5	290	4.903526324566	1
5	299	5.064050280272	1
5	309	5.225450487761	1
5	314	5.287343433724	1
5	318	5.360839875843	1
5	327	5.512493473242	1
5	336	5.626087367413	1
5	339	5.638674808357	1
5	345	5.766197578579	1
5	352	5.868340766014	1
5	358	5.955572885518	1
5	360	5.971045853568	2
5	367	6.048129319415	2
5	382	6.337571367214	1
5	390	6.479707835223	1
5	395	6.553490564399	1
5	397	6.564685180462	2
5	404	6.618241752485	2
5	410	6.682411222688	2
5	412	6.713139257903	3
5	414	6.733759586106	4
5	425	6.882585068681	3
5	432	7.016114087143	3
5	434	7.077022329461	4
5	440	7.101427178535	4
5	447	7.185460649096	4
5	449	7.199988451825	5
5	451	7.201885308745	6
5	453	7.241062389813	7
5	459	7.33720048372	7
5	461	7.353414132665	8
5	468	7.448113800382	8
5	470	7.473257993589	9
5	476	7.569212791326	9
5	483	7.618068496257	9
5	498	7.905859998385	7
5	509	8.138751335806	6
5	516	8.253265231276	6
5	522	8.313039838958	6
5	524	8.357591688463	7
5	531	8.452541146813	7
5	537	8.509994387487	7
5	548	8.742629493656	6
5	555	8.862240273602	6
5	557	8.87269639618	7
5	559	8.878907925227	8
5	579	9.228929293672	5
5	585	9.338820540427	5
5	592	9.444703953576	5
5	598	9.555763698145	5
5	600	9.574506304747	6
5	607	9.598126975355	6
5	609	9.642467378217	7
5	611	9.65627024706	8
5	622	9.795174516039	7
5	624	9.833070712467	8
5	630	9.926676868444	8
5	632	9.971887074466	9
5	639	10.011198330196	9
5	645	10.095641109549	9
5	647	10.09955942519	10
5	649	10.157291856271	11
5	656	10.257878956788	11
5	680	10.703328641406	7
5	696	11.022623305611	5
5	698	11.033386816427	6
5	704	11.139169457762	6
5	706	11.16259960964	7
5	713	11.263401534182	7
5	719	11.280992888725	7
5	744	11.817002923749	3
5	750	11.922877195258	3
5	757	12.010068780621	3
5	759	12.039276833948	4
5	765	12.092783301656	4
5	767	12.155577459755	5
5	774	12.219955559915	5
5	776	12.247983260763	6
5	782	12.34566966817	6
5	784	12.362982413785	7
5	791	12.404232536777	7
5	793	12.415928077756	8
5	799	12.528244907909	8
5	806	12.635052127624	8
5	808	12.673207711961	9
5	814	12.688078938886	9
5	821	12.838742472213	9
5	823	12.860630531864	10
5	838	13.159349521049	8
5	845	13.205350916823	8
5	851	13.313977854911	8
5	862	13.486011020683	7
5	864	13.487377478526	8
5	866	13.497591966678	9
5	873	13.595102160094	9
5	879	13.777084052022	9
5	890	13.889065488597	8
5	892	13.899168966128	9
5	908	14.256527803362	7
5	928	14.63143094932	4
5	939	14.841963079399	3
5	945	14.905196739039	3
5	947	14.976455098372	4
5	967	15.352647826822	1
5	969	15.358380519464	2
5	976	15.451228369154	2
5	982	15.511223057818	2
5	989	15.645647585033	2
5	991	15.647666597848	3
5	993	15.651664227754	4
5	999	15.709952066641	4
5	1001	15.743193090737	5
5	1021	16.132350103022	2
5	1023	16.145155779553	3
5	1030	16.189697725745	3
5	1032	16.224815334683	4
5	1038	16.290379963119	4
5	1040	16.303018826762	5
5	1047	16.419706179417	5
5	1049	16.457976274303	6
5	1060	16.670399994003	5
5	1066	16.723888431579	5
5	1077	16.974279609888	4
5	1084	16.980909350036	4
5	1086	17.005348894844	5
5	1092	17.123267847551	5
5	1099	17.206552199158	5
5	1105	17.290161952355	5
5	1116	17.490486004606	4
5	1118	17.521327488616	5
5	1125	17.592452282338	5
5	1127	17.666528177383	6
5	1142	17.915086413081	4
5	1144	17.924951443923	5
5	1155	18.178981894719	4
5	1162	18.264771458826	4
5	1164	18.27344850706	5
5	1179	18.538374099928	3
5	1181	18.570908141481	4
5	1188	18.609264162891	4
5	1190	18.610204237957	5
5	1196	18.720288828966	5
5	1207	18.905021594066	4
5	1209	18.919154665422	5
5	1216	19.02333273084	5
5	1222	19.149326111851	5
5	1233	19.333454359	4
5	1235	19.367619775703	5
5	1242	19.398371548079	5
5	1244	19.418606591936	6
5	1246	19.469326604262	7
5	1252	19.557639508458	7
5	1259	19.638119248438	7
5	1261	19.640150494318	8
5	1263	19.658175719516	9
5	1274	19.834749826757	8
5	1280	19.880922916361	8
5	1282	19.88139357041	9
5	1284	19.897227721033	10
5	1291	20.01049113523	10
5	1297	20.094799438445	10
5	1299	20.12627160453	11
5	1306	20.247922469874	11
5	1317	20.380798257249	10
5	1319	20.414832931073	11
5	1334	20.742347248844	9
5	1341	20.799137664192	9
5	1343	20.827739761443	10
5	1349	20.968842202372	10
5	1356	21.054681499155	10
5	1362	21.105115879814	10
5	1369	21.194774966893	10
5	1380	21.421148324479	9
5	1386	21.506070405635	9
5	1393	21.607936278637	9
5	1395	21.633178277926	10
5	1406	21.855328967773	9
5	1421	22.160557133461	7
5	1428	22.274517929814	7
5	1434	22.333780332559	7
5	1441	22.393418271992	7
5	1452	22.580764259978	6
5	1467	22.965064918302	4
5	1478	23.085288775027	3
5	1480	23.097641439763	4
5	1482	23.13294345309	5
5	1489	23.278625308946	5
5	1500	23.446717529401	4
5	1506	23.499789779063	4
5	1508	23.550291653838	5
5	1515	23.662819855522	5
5	1526	23.875769795129	4
5	1532	23.904510842736	4
5	1539	23.991564425369	4
5	1541	24.02913830961	5
5	1552	24.242621354608	4
5	1567	24.579058399913	2
5	1578	24.696996693277	1
5	1585	24.785782834321	1
5	1591	24.914973761201	1
5	1598	25.022757249615	1
5	1604	25.092337195705	1
5	1606	25.168523972835	2
5	1624	25.481070808601	1
5	1627	25.507276532769	1
5	1634	25.610556233834	1
5	1636	25.66078731366	2
5	1642	25.715926912673	2
5	1649	25.812372269222	2
5	1655	25.905612557263	2
5	1657	25.970023028095	3
5	1659	25.97196100623	4
5	1666	26.035473777793	4
5	1668	26.07136649938	5
5	1679	26.197270851106	4
5	1685	26.305202870972	4
5	1687	26.33916934423	5
5	1689	26.3734293067	6
5	1696	26.421792875359	6
5	1702	26.518030380936	6
5	1709	26.65632830159	6
5	1715	26.712324408597	6
5	1726	26.923069169092	5
5	1728	26.937626566937	6
5	1730	26.948481276786	7
5	1737	26.983903690011	7
5	1739	26.993595965469	8
5	1741	27.077984812728	9
5	1747	27.121687614105	9
5	1754	27.211060521936	9
5	1760	27.291315720512	9
5	1762	27.376723694076	10
5	1767	27.380144035912	11
5	1775	27.48604497445	10
5	1791	27.833298522378	8
5	1797	27.938883483244	8
5	1799	27.977596492459	9
5	1806	28.034057542571	9
5	1808	28.059065692069	10
5	1823	28.285929091338	8
5	1825	28.301158453863	9
5	1827	28.346975742259	10
5	1829	28.357207803744	11
5	1836	28.414453958887	11
5	1856	28.828234934938	8
5	1867	29.050726400661	7
5	1871	29.080882991983	8
5	1880	29.244972749776	7
5	1886	29.321980435731	7
5	1893	29.443682385265	7
5	1899	29.503089735097	7
5	1901	29.51365099946	8
5	1903	29.52413918302	9
5	1914	29.776067396028	8
5	1921	29.819501961622	8
5	1927	29.944762714113	8
5	1934	30.008108975885	8
5	1967	30.684648027879	2
5	1974	30.868621306387	2
5	1980	30.884808315058	2
5	1991	31.119826044033	1
5	2002	31.322416925743	1
5	2005	31.326245217031	1
5	2007	31.343977774546	2
5	2012	31.414969567268	3
5	2018	31.51056620966	3
5	2022	31.528820069848	3
5	2024	31.542038440809	4
5	2033	31.69302078637	4
5	2044	31.881413675029	3
5	2055	32.081612324582	2
5	2064	32.246284234715	1
5	2068	32.299284522529	2
5	2075	32.383472618702	2
5	2077	32.398551719721	3
5	2081	32.45083872273	3
5	2083	32.454217401285	4
5	2085	32.461384939716	5
5	2105	32.866369623596	2
5	2114	32.985913480224	2
5	2118	33.032640736865	2
5	2122	33.09307064405	3
5	2126	33.147556356864	3
5	2133	33.275589777245	3
5	2137	33.280781032463	4
5	2148	33.482058306084	3
5	2152	33.527549490563	3
5	2170	33.898545549753	1
5	2172	33.900222326352	2
5	2183	34.093880050101	1
5	2185	34.120112981018	2
5	2187	34.12129130421	3
5	2196	34.266070712409	2
5	2200	34.310695994461	3
5	2223	34.599157169671	2
5	2229	34.730087006073	2
5	2235	34.868716141275	2
5	2239	34.887545638797	3
5	2242	34.929006893063	4
5	2247	35.002620003062	5
5	2250	35.069866054745	5
5	2252	35.075453060034	6
5	2256	35.116850952301	7
5	2259	35.139164873111	8
5	2261	35.158947823857	9
5	2263	35.160817370899	10
5	2265	35.179569266019	11
5	2274	35.33741053823	11
5	2279	35.399670272628	12
5	2282	35.425020843142	12
5	2291	35.632623949186	12
5	2293	35.674989659322	13
5	2305	35.963444088163	13
5	2318	36.226665974418	12
5	2322	36.32037984619	13
5	2329	36.442259526524	13
5	2334	36.533055929256	14
5	2336	36.536291609721	15
5	2344	36.689374732348	15
5	2346	36.707370466503	16
5	2349	36.776690443457	17
5	2355	36.873838659266	17
5	2357	36.879006949846	18
5	2362	36.965099313514	19
5	2370	37.085196404168	19
5	2372	37.112363211202	20
5	2392	37.600276500001	19
5	2402	37.872411325592	18
5	2406	37.903508106089	19
5	2412	37.998691076843	20
5	2417	38.112350726369	20
5	2423	38.189058691826	21
5	2432	38.388775888575	21
5	2435	38.477913746266	21
5	2443	38.616881452644	22
5	2449	38.74785998978	22
5	2464	39.081653423165	21
5	2466	39.119042072755	22
5	2472	39.199840078095	23
5	2475	39.250626590364	23
5	2477	39.274501877649	24
5	2481	39.298054334991	25
5	2484	39.323214196302	26
5	2486	39.34381740115	27
5	2488	39.36850332803	28
5	2501	39.65741088722	27
5	2506	39.741708764761	28
5	2512	39.876243508084	28
5	2517	39.936411406736	29
5	2522	40.0038358637	30
5	2535	40.355283731754	29
5	2540	40.381085008148	30
5	2545	40.495198798434	30
5	2548	40.524549563626	31
5	2550	40.533464992626	32
5	2552	40.539443088918	33
5	2554	40.54525032513	34
5	2559	40.602240081661	35
5	2562	40.66915145403	35
5	2566	40.706518433469	36
5	2575	40.919385442922	36
5	2582	41.038571253287	36
5	2597	41.41324071467	36
5	2600	41.460682343703	36
5	2605	41.55682630086	37
5	2607	41.576623074393	38
5	2613	41.654820646481	38
5	2615	41.657319481812	39
5	2624	41.8501554955	39
5	2626	41.857117262607	40
5	2634	41.993310435038	41
5	2639	42.107064285592	41
5	2642	42.172187358784	42
5	2648	42.232645480618	42
5	2653	42.345681035209	43
5	2659	42.422593015319	43
5	2663	42.51599904858	44
5	2673	42.742983050158	44
5	2679	42.868403377167	44
5	2698	43.332368629804	43
5	2703	43.395761631743	44
5	2705	43.420210733947	45
5	2710	43.481094025321	45
5	2716	43.589884468682	46
5	2726	43.826776285766	45
5	2728	43.857336775947	46
5	2730	43.872096379236	47
5	2732	43.874183101097	48
5	2736	43.900218242252	49
5	2743	44.042256587811	49
5	2752	44.255612916558	49
5	2756	44.294181685963	50
5	2766	44.528966062106	50
5	2768	44.577329900855	51
5	2776	44.681114908404	51
5	2779	44.769865101252	52
5	2784	44.809122404071	53
5	2793	44.986936737754	53
5	2796	45.060273505071	53
5	2801	45.159423934361	54
5	2803	45.159429469551	55
5	2812	45.365511593639	55
5	2817	45.402887923021	56
5	2820	45.434845388508	56
5	2824	45.490262471413	57
5	2831	45.650234415597	57
5	2840	45.866810783684	57
5	2844	45.887345560558	58
5	2850	46.001251325625	59
5	2862	46.306569792584	58
5	2865	46.367474253855	59
5	2873	46.483785582198	59
5	2876	46.549835890173	60
5	2878	46.57410773954	61
5	2887	46.729574033321	61
5	2900	47.024022061063	60
5	2902	47.050086074001	61
5	2910	47.181336873298	62
5	2919	47.393611538692	62
5	2922	47.422906684541	62
5	2924	47.460549619693	63
5	2928	47.484541971637	64
5	2941	47.800251525779	64
5	2944	47.873274292303	64
5	2949	47.937093152862	65
5	2951	47.939692927381	66
5	2957	48.064028005176	66
5	2961	48.087280507014	67
5	2963	48.103967971137	68
5	2966	48.159251808202	69
5	2974	48.290349045018	69
5	2977	48.337216692616	70
5	2983	48.441137256274	70
5	2987	48.50342018725	71
5	2990	48.527612151727	72
5	2992	48.560133753525	73
5	2997	48.580769552885	74
5	3000	48.669148118488	74
5	3009	48.833955735804	74
5	3018	49.033359655932	74
5	3023	49.170827651312	75
5	3028	49.183330910304	76
5	3033	49.295676960259	76
5	3036	49.368529344532	77
5	3041	49.400949255881	78
5	3043	49.415113459361	79
5	3046	49.434339603445	79
5	3051	49.560520870794	80
5	3059	49.682420805312	80
5	3062	49.732848798637	81
5	3067	49.795052490545	82
5	3070	49.87839031461	82
5	3079	50.061916654904	82
5	3083	50.082162531274	83
5	3085	50.105086963795	84
5	3087	50.120734540833	85
5	3090	50.138761970791	86
5	3095	50.205716029877	87
5	3097	50.219050092204	88
5	3100	50.262995631253	88
5	3108	50.391038066651	89
5	3118	50.673101661493	88
5	3120	50.676194290649	89
5	3128	50.821149768292	90
5	3134	50.958584069734	90
5	3142	51.096680379301	90
5	3144	51.106397147138	91
5	3154	51.340446343204	91
5	3156	51.364966152468	92
5	3158	51.373677010794	93
5	3166	51.512008657409	93
5	3172	51.592347833676	94
5	3178	51.723910459506	94
5	3183	51.811731967378	95
5	3185	51.816400741742	96
5	3198	52.143250381824	95
5	3200	52.16671596675	96
5	3205	52.201267925121	97
5	3208	52.235083396605	97
5	3210	52.262636190309	98
5	3215	52.375728038228	99
5	3220	52.386296755638	100
5	3222	52.392808042117	101
5	3224	52.394464651559	102
5	3227	52.475578753782	102
5	3239	52.740834605334	102
5	3241	52.741762907772	103
5	3247	52.852603883193	103
5	3256	53.031602843641	103
5	3264	53.185385715089	104
5	3280	53.600982824645	103
5	3283	53.634073812763	103
5	3288	53.755642860099	104
5	3294	53.843930914595	104
5	3296	53.863975134104	105
5	3298	53.870584335173	106
5	3303	53.942408983184	107
5	3308	54.008889758139	108
5	3313	54.095746331286	108
5	3327	54.475148709595	107
6	7	0.179687450457	0
6	7	0.179687450457	1
6	8	0.179687450457	1
6	10	0.279687450457	0
6	10	0.279687450457	1
6	14	0.379687450457	1
6	18	0.39513656511	0
6	18	0.39513656511	1
6	26	0.579687450457	1
6	30	0.581096986317	0
6	30	0.581096986317	1
6	34	0.681096986317	1
6	34	0.681096986317	2
6	38	0.779687450457	2
6	44	0.868573833052	1
6	44	0.868573833052	2
6	48	0.968573833052	2
6	48	0.968573833052	3
6	49	0.979687450457	3
6	60	1.13519035247	2
6	60	1.13519035247	3
6	61	1.179687450457	3
6	67	1.23519035247	2
6	67	1.23519035247	3
6	73	1.33519035247	3
6	73	1.33519035247	4
6	76	1.379687450457	4
6	84	1.43519035247	3
6	84	1.43519035247	4
6	88	1.53519035247	4
6	88	1.53519035247	5
6	89	1.579687450457	5
6	93	1.63519035247	4
6	93	1.63519035247	5
6	101	1.73519035247	5
6	101	1.73519035247	6
6	102	1.779687450457	6
6	106	1.83519035247	5
6	106	1.83519035247	6
6	110	1.93519035247	6
6	110	1.93519035247	7